224
config_type=divacancy dft_energy=-23044.821696015893 dft_virial="-74.32884069191967 9.821997235500675 10.452370102600595 9.821997235500673 -69.59316452783148 -2.1472075785591125 10.452370102600597 -2.1472075785591125 -65.67303326055384" pbc="T T T" Lattice="16.249967316 0.0 0.0 0.0 16.249967316 0.0 0.0 0.0 16.249967316" Properties=species:S:1:pos:R:3:Z:I:1:dft_force:R:3
Si	1.169461397830572	0.88659821676096	1.272031191529164	14	0.2599215214613258	1.547292724328306	0.12596616295001484
Si	2.6272459657489318	2.441557589229	0.015307469211672	14	-1.5590079657195608	1.1423174111307182	0.836013663914985
Si	3.802443602042052	4.00187945091132	1.394913444372756	14	1.4673506321616019	-1.020637537859922	-0.2987876350333442
Si	2.72820701268324	-0.18542837704287599	2.6970395753711522	14	-1.147296870804249	1.5790494745795831	1.9088150720627313
Si	4.157749137406391	1.428843376128564	4.040668122894612	14	0.016886762632200566	-1.0254010246865606	0.1916134237577597
Si	-0.063309872663136	2.808449351289648	2.5890747925236477	14	0.7878072389359325	-1.8308460461187088	0.26533935459194186
Si	1.302061131129132	4.0028706989175955	4.098794255983944	14	-0.2435803473780606	0.3722384575982705	0.5838882480054122
Si	-0.0089374820238	-0.019109961563616	5.625819934635779	14	-1.1528946813072751	-0.5914997481951786	-1.5934582059042248
Si	1.350762283175184	1.196663843117556	6.79338008629038	14	2.4409693385898477	1.6344459955864297	-0.18891967671384052
Si	2.835034297818624	2.768214432215232	5.452774032687696	14	-0.40760221150318326	-0.5435283222423878	0.29679425707863344
Si	4.134349184471351	4.26577892012316	6.899118623615592	14	0.4838730223832479	-0.9962529178931057	-1.9574164188189584
Si	2.689369590798	-0.054746139887603996	8.180802295730459	14	0.11628672275125336	-0.09212784583154597	0.958301860704528
Si	4.055618092825331	1.33915980651156	9.600285690685007	14	-0.032293339931591884	0.04194012709278747	-1.3791560632488185
Si	0.08295608314818	2.526837417703368	8.047893813052895	14	-1.7205973071012914	0.8120653605209978	1.2451775647896262
Si	1.134198968754852	4.03169814093618	9.462973466864808	14	1.1201328859863524	-0.006145455936217938	-0.15637308290821406
Si	0.0450936593019	0.057817383710328	10.96989793594675	14	2.066042019047767	0.05856720808765309	1.0832390673054195
Si	1.4953869922875838	1.5265056796977239	12.578953449609756	14	-0.6924860802967627	-0.46450308623284836	-1.5833591613172153
Si	2.707683303963132	2.830874306185728	10.764823348418831	14	-0.8423262416970125	-1.0569433447541372	0.9601584558562068
Si	4.209651533013696	3.974075756833644	12.027673308414455	14	-0.13258367382301198	1.1048065271729497	1.3874903011440785
Si	2.7332607525185155	-0.04135616681922	13.89177205910208	14	-0.6634598438954831	0.533568374453198	-0.0977973901730045
Si	4.1639891248557355	1.401494681135736	15.066709695918144	14	0.5841741549170126	0.10833635088029145	-1.9343188941754084
Si	-0.2929056608709	2.699233320958812	13.72394239666243	14	2.033440146477757	0.30879771937627676	-0.5890610547990182
Si	1.3362510623619959	4.049784354558888	14.890755049820495	14	0.27708287814171817	0.024597250376792643	0.13208102273292302
Si	0.144998458360668	5.62256994117258	-0.021401206955172	14	-0.5899336879446764	-0.4345890471645215	0.21944718151155476
Si	1.512156958557696	6.982350956208144	1.3743572357180158	14	-0.17630043469202178	-1.3676351974197667	-0.5179152281536046
Si	2.9102066466224397	8.15041485684954	-0.034173681265548	14	-0.6008035499066663	0.8872048850601973	0.020571156555972765
Si	4.236951478104576	9.54436955315065	1.3569372707552638	14	-0.08404506203659644	0.5030038457388738	-0.5826682585310019
Si	2.5510986189061557	5.340194259122447	2.672664624397152	14	-0.28856517739096743	0.80075172578075	0.532767475145972
Si	3.9112208832553557	6.822045028635804	3.8545409972571476	14	1.5100404935657445	0.25140010709875904	0.9437308926341849
Si	0.225192047065128	7.985786437971143	2.926164114526752	14	-1.317911048970231	1.1586279890606734	0.13183651061697696
Si	1.3542235262134918	9.47884968493254	4.277755146035052	14	0.9665239984078294	-1.3977472115977452	0.13145315881374287
Si	-0.046214907046704	5.471510245003043	5.540686355867256	14	1.41321549542482	0.2995689939401372	-0.4068391074441633
Si	1.500001983005328	6.904919861947404	6.86162994901758	14	-1.296568303707682	0.3898127337930787	-1.2416942313018895
Si	2.9871339918963837	8.150561106555383	5.528547630282204	14	-1.010499412472046	0.6508069203939703	-0.041687387439816925
Si	4.299790101715548	9.688003014256775	6.838993744546392	14	-0.7828792013688047	-2.225666007522776	0.6565425421421567
Si	2.5462561286459877	5.339853009808811	8.007041395220472	14	-0.2045383702021441	-0.48906819779313915	1.4407188661449761
Si	4.075995551839596	6.669295335865403	9.095691705588576	14	-0.24553670141616132	-0.24824484664987329	1.9491243470509492
Si	0.23289453157291198	8.172011063412503	8.407554339657924	14	-0.7756649369510014	0.011383825915487636	-1.1692415118222448
Si	1.699730331286284	9.54815579553528	9.573245745071183	14	-1.5383406498246144	1.609760556297156	-0.6198104459858611
Si	-0.16956840894246	5.356687975948188	10.880620615512647	14	0.7319396914344349	-0.8205548931775947	0.8360956821746977
Si	1.351721031246828	6.597779229707688	12.192236727423587	14	0.20833846386532295	0.24748379947510946	-0.48377352060735823
Si	2.6580559037800677	7.877350406071476	10.632564864433908	14	2.022739463245833	-0.32682939520753923	1.4875137543032673
Si	4.317047567005139	9.30180629102472	11.938818487130566	14	-0.6952531038423061	-0.22759552849216802	0.8374637673155484
Si	2.840884286052384	5.424417839721277	13.535459025764148	14	0.026299064988198655	-1.226421094368614	-0.430204284151541
Si	4.201819048767384	6.804998812921319	14.841468898951067	14	0.020860663015021437	0.0718587941506906	0.10649903901851365
Si	-0.044248661001468	7.950329009287632	13.459539178463796	14	0.37732873191109967	0.5748814089584015	1.0259615256463526
Si	1.227896280298908	9.366172411563396	14.948523683628876	14	0.3031752262621769	0.3521036176151269	0.5523317868585748
Si	-0.052926143548212	11.084427705589919	-0.011147477578775999	14	1.5630710834569908	-1.1670077355201	1.2350836624132568
Si	1.614905501896764	12.36590012812968	1.5334769156762877	14	-0.4005815513159869	-1.5089284905147804	-1.1537459742787766
Si	2.705993307362268	13.855648381758611	0.047758653941724	14	0.6813961317193681	-2.2895530896283476	0.08957628091183102
Si	4.12822294679322	15.08411341091358	1.308658617859428	14	1.4516977429725404	-0.8556260552970746	0.32041705853908997
Si	2.7253307684683077	10.616444896856436	2.8599617476813677	14	0.05743746440998003	1.3759411531565053	-1.2722854995115433
Si	3.823422309847008	12.267961575116146	4.053050597989404	14	1.0675450404312357	0.12566482940649348	-0.07251031223881613
Si	0.11485476898948799	13.581787682582064	2.723283272586492	14	-1.3484511521840141	-1.4566157532289197	-0.3400191654998989
Si	1.094045299517016	14.888203804951884	4.137209178718968	14	3.0580263878883622	0.6120318239502851	1.2852767804731877
Si	-0.085198578637788	10.648603582174799	5.549916337302744	14	-0.39682722332750664	0.7175844391004522	-0.9670791000464494
Si	1.3582372681405441	12.04577577200448	6.575403024713555	14	-0.833392936262158	-0.4718374212691027	2.742594445454508
Si	2.662199645445648	13.492185362801639	5.648618638780127	14	-0.10534024185072292	1.5583142815041848	-2.7351780921585407
Si	3.9833544881710794	15.018317293251094	6.650250374171052	14	1.2195680702482914	-0.699071966574322	1.6282282915907151
Si	2.8554442567675196	10.963511698791564	8.073260012033172	14	-1.5249068816373725	-1.4641794308597313	-0.6977419337922094
Si	4.078319297165783	12.321066468304837	9.255786383585807	14	0.6498723236100965	0.8951310885411496	2.8835285551362966
Si	0.015908718002364	13.35901688064702	8.105516197155431	14	0.448592315180176	0.8217172898928337	0.28984250251401705
Si	1.272713690156436	14.816525199121008	9.612716915681748	14	0.7210400046507313	-0.2799396332629347	-0.4896811493014625
Si	-0.040364918812943996	10.870139386593827	10.640511098451432	14	1.2373652612743562	0.7375462436955499	0.4291164494905863
Si	1.263906207871164	12.103983154930392	12.340923928364987	14	1.2851636518391012	-1.1527931226471293	-0.9853439751302494
Si	2.704693309976988	13.417711762592411	11.019119086946915	14	-0.18663344986316488	0.6105310697749146	-0.9678152074996079
Si	3.9854507339548437	14.874228833060124	12.395263819069692	14	-0.23839982726849432	0.09347664768249565	-1.393007636050584
Si	2.6981445731486398	10.437110257557059	13.45126794509995	14	-0.6318205931573369	0.2737597245154268	-0.8925103608883227
Si	4.118066717220719	12.22574416002918	14.981527367247672	14	-2.8045423999276236	1.046054970833842	-1.4559390383086568
Si	0.22839329062637997	13.607560130745238	13.659462526352543	14	-0.3578664930797068	1.3615031112312137	-0.28251870900957526
Si	1.0193441997653638	15.085137158854486	15.455831413267079	14	-0.4856699678914994	1.4238521581342727	-0.745533125262058
Si	5.550371336387592	0.088692321610728	-0.015616218590676	14	0.0837352438455186	-0.44592093675254213	0.37299924766250236
Si	6.9322035570709675	1.432239619297608	1.199621337169068	14	0.1124763446667939	1.022929678252834	1.481315333597454
Si	8.16780232187766	3.0493713667166635	-0.049546150346484	14	-0.006201506032197167	-1.8905113732885974	-0.4363044886341243
Si	9.527778336521015	4.433868582039864	1.1422589525435878	14	-0.16048762275204706	-2.1005344253596814	1.9902458342098013
Si	8.192924771348196	0.10924853026546799	2.710462048374168	14	-0.5140390297729494	-0.49448371692896703	0.02382000523851188
Si	9.551422038965796	1.526651929403568	4.002383199898116	14	-0.4318731886148491	-0.27526716356462955	0.5933123774458829
Si	5.518228901036544	2.8460355256915557	2.755084458623904	14	0.16761858335747776	-0.13590682744930335	-0.4836971587793498
Si	6.922941075700848	4.29332261472378	4.29397261341642	14	-0.25937207625441017	-1.4713332743025112	-1.4440939560987343
Si	5.601054984446196	-0.082972333115496	5.508868919862527	14	-0.8372516511266364	0.5211314237985778	-1.8415644699773424
Si	6.6484303778316605	1.5184456959089878	6.797036328936479	14	-0.3368109402814181	-1.2054071934765118	0.8936822706932464
Si	8.057091294553752	2.6810333575648917	5.559942567136716	14	0.8636841564809506	0.4587625793845537	-1.4894495394988068
Si	9.120927904830324	4.126224200813351	7.071530776838352	14	-7.890667462991135	-3.538148167609515	8.808473900682268
Si	8.04596006694229	0.186842124199368	8.159466088644551	14	0.19367750710877457	-0.8345285934820675	-0.6250966385240855
Si	9.62261314577719	1.2824799205133521	9.383023627670088	14	-0.3649354900469219	0.7036942997188843	1.2015297095431963
Si	5.465952756180973	2.8851816969558	8.21601597490423	14	-1.0006240540478897	-0.8607785503586513	0.291907871417692
Si	7.023544623354204	4.12944169434192	9.380147383455157	14	0.593173280648063	-0.3762311270499285	0.5166816118209976
Si	5.355079229183904	-0.222640802196516	10.767618342797183	14	-0.9888992995669502	1.7256893811878444	1.888926029748194
Si	6.672659079099816	1.319302346451408	12.170786770566467	14	0.47877323498073426	-0.7957506688225301	-0.906648097712221
Si	8.215707225525227	2.571216078443364	10.890614345411988	14	0.41444032321264906	0.8880662053424468	-0.1977077146981067
Si	9.554509532755835	4.029553145250468	12.37979385018486	14	-1.1651022893673384	-0.22057229719965155	-0.9445713869633411
Si	7.894185372210852	-0.07483109949017999	13.535264026156357	14	1.1125298704441426	1.3247615019852337	0.5195170267680568
Si	9.404051085376992	1.542251898026928	14.718099147087994	14	-0.6113425106139534	-1.1570519014994227	1.470324886795949
Si	5.5971387423230405	2.758529451694896	13.585801424509116	14	-1.752675959738651	-0.2710916885247091	-0.2764357309326369
Si	6.592839239643624	4.2164602693191	15.036679756318176	14	1.5318930890132791	-0.24005253376828548	-0.8889761195152472
Si	5.263640663096772	5.37402669107436	0.13308723231803998	14	-0.8222489944730402	0.9057638945926222	0.6235925419117989
Si	6.6345691557111115	6.700804022491128	1.576994328148536	14	0.504066997788755	-0.0831117508053827	-0.35522982457389496
Si	7.8914716276690795	8.156703594200831	0.21937455876599998	14	0.6559308761864934	-0.12726482824722163	-1.1906562480337581
Si	9.304861284880127	9.532442077140708	1.37523473395308	14	0.6823340709401581	-0.19026359346468197	-0.2687848928314723
Si	8.2943895672693	5.429699079098976	2.7594719497992237	14	-1.3363386750207964	0.4327111118386854	0.201446101833602
Si	9.512340867570815	6.871964928230556	4.050840602434428	14	-0.09721657748118304	-1.0675404124416592	0.34330195277266395
Si	5.5287426298899955	8.302368301221456	2.8067268547541517	14	-1.0385280600091085	-1.0183351130457294	-0.017730856508805178
Si	6.796776329459425	9.606005679180239	4.193580315338171	14	0.4064375007931562	-0.31785495208756237	0.6081893070493237
Si	5.486265215325972	5.675138585439839	5.357987973333468	14	-1.1904826984246482	0.13817839899965417	0.8542682545775043
Si	6.896339879204556	6.923997323576388	6.823865024975196	14	-0.47828806740682234	-1.758095849753523	0.3641302198606515
Si	8.277115852012392	8.019163870838208	5.492943951892848	14	-0.8856966746793984	2.302307828900538	-0.4120679643337484
Si	9.43590102131635	9.418464806386282	6.889839892278156	14	1.974703759660038	0.09382528956390772	-1.2685016038118815
Si	9.60311318499799	7.038705842860032	9.43773726762306	14	0.6318465613210703	-2.4367928351077994	1.1130716023350977
Si	8.237157182382347	7.952831504254296	10.954509216898499	14	0.06041429014964747	1.1645638999132994	0.3803572368677021
Si	5.537533862207952	8.161562334428316	8.192729771740403	14	0.09581326819744622	0.944707655545309	-0.20962041697794875
Si	6.866277439669956	9.322070000267772	9.70748672506866	14	-0.3899286906430174	1.922771288851027	-0.53238695155859
Si	5.492505202775316	5.368241702709864	10.657037315211804	14	-0.042931288193704564	0.81043733663228	0.11044954234292118
Si	6.877343667412151	6.589264246834104	12.20096295987228	14	0.25693106886346156	-0.3775434192053321	0.6685125800706381
Si	9.62951938188649	9.534684572630315	12.16895052425976	14	1.7906498997645777	-1.62007840194691	-0.5700796126624929
Si	8.294032067988349	5.38296417309816	13.849993393132642	14	-0.8153237222932213	0.6424680545091341	-0.8986812707672103
Si	9.545312051254978	6.941206038964031	15.140029548447934	14	-0.9514658058793183	1.1085978790780402	-1.7678904754706273
Si	5.7078497696469475	8.109416189311272	13.564205217946151	14	-0.2796521836881421	0.7896484074556906	-0.33030887203729564
Si	6.9987471732299875	9.752937883651512	14.928162474581926	14	-1.2126240289996355	-1.9175149211345166	-0.18604672362910707
Si	5.49687644398332	11.070988982619587	-0.126245996078004	14	1.4280397173691979	-1.6870657228475159	2.4392412987041765
Si	6.932106057267072	12.406135047204096	1.281277422931968	14	-1.4237801671853085	-1.143898640902609	0.9784732103832179
Si	8.3313582429132	13.581673932810851	-0.044606160282419996	14	-1.2377277871244972	1.5110923327522172	-0.1799542324624842
Si	9.576641988240228	14.955299919999648	1.433149617467304	14	-0.5274874532605158	-0.027545536847406443	-0.31122715679328466
Si	8.07696500458122	10.864858147216127	2.691092087333496	14	-0.2975622462377617	1.4377034738255063	0.7910085221700489
Si	9.396397350771156	12.330523949282748	4.085095533536555	14	-0.33845619057578086	-1.3039967411986537	0.5378608347851853
Si	5.3892691604167675	13.59642890313378	2.7735119215602477	14	-0.654672834353345	-0.7498255855940451	-1.4307370639605652
Si	6.877814916464316	14.74010160283386	3.9938032171552678	14	0.22930299953527836	2.0110013390172288	1.0335681407360107
Si	5.257238175974268	10.987691650157771	5.387481664012007	14	1.6655687112657582	0.6387306958157668	-1.198727204744235
Si	6.718938986015784	12.143665575116064	6.779193864823512	14	1.3588965246576477	-1.265907358543852	-0.8556733636349652
Si	8.07330876193512	13.60796637992814	5.6276074310405395	14	1.0420317052288743	-0.10373047280977821	-0.9294676858706633
Si	9.533140825735295	15.080473418234796	6.776821369595376	14	-0.526120139451261	-0.059279918482398136	0.23405028839839975
Si	8.196938513275247	10.835526956210748	8.118353671335072	14	-1.0825641521588807	-0.279458836568067	1.3495050482547428
Si	9.539657062629013	12.193585474710817	9.519442103287908	14	0.1319056733500889	-0.27520597125801005	-0.10248837182961466
Si	5.615842454703755	13.480030387249272	8.055775047201156	14	-2.0494396206639744	2.44749943188196	0.4562961180509356
Si	6.768403886525688	14.904437522300567	9.476574689508299	14	1.2215143969756432	-0.5998728097807727	-0.561522459935976
Si	5.413221612240552	11.089985194411991	10.868774389339285	14	0.46368187519359305	-1.5544038874227715	-0.8345658745092096
Si	6.995318430126312	12.18000050203464	12.228717904048008	14	-1.9538947758619518	-0.16711310405153662	-0.1558110392852297
Si	8.127177403587659	13.520915305016327	10.861023154929551	14	0.5809972971834377	0.590673137834751	-0.8895399629119558
Si	9.302553789521257	14.788494005500906	12.398221313121203	14	0.6091149049645771	0.6179379099811972	-1.2173677183153084
Si	8.351475702450408	10.819374488698644	13.431004235856898	14	-0.6352147092904642	0.26399569495163244	0.810020560459884
Si	9.459674723499658	12.128569355479499	14.909475012168528	14	1.8792265349279351	0.4381173749953607	-0.1462213306621414
Si	5.338228013077211	13.371594355349602	13.409976778149996	14	1.1530854573220302	0.36685173484202827	0.6026215784785431
Si	6.615621693820655	14.84808263564868	14.829785172450864	14	0.5965851374078994	-1.1123552923929045	0.7087182395144536
Si	10.735898406596352	0.19410585958962	0.148914700483824	14	-0.01918738767266907	0.8684746399134505	-0.8083246593907143
Si	12.16830052556712	1.426292131259952	1.5491906340708599	14	0.34088768487704496	1.0175336995174393	-1.3579315888309962
Si	13.539830266972151	2.840380537065588	-0.07853609203822799	14	0.5067797710120432	-1.9091310609065777	1.730630531392105
Si	14.883491314430243	4.178874094917192	1.278693678128724	14	0.1897223757947908	0.899387296288123	-0.3222623408273602
Si	13.64574755393784	0.04281866387766	2.6664733868497557	14	-0.10801239160995281	-0.708325888842599	0.31735101544481337
Si	15.077223424771594	1.255049975683944	4.048078107990708	14	-0.3517333784490256	1.0576105465847154	-0.16331146772516567
Si	10.78250331285864	2.9605490453674075	2.652530914892628	14	-0.3055946363684363	-0.27102432556532124	-0.5732014487422167
Si	12.241961627410548	4.136672929797539	3.9409583234436356	14	-0.1595126596146469	0.8914320393170527	0.8815273702922463
Si	10.913998048379712	0.022359955026816	5.2263469881065525	14	-0.32344042128505207	0.8562863151432886	1.0960812241584952
Si	12.379208851361483	1.402242179632272	6.562646800370495	14	0.6000869828539411	-0.9081995026623984	-0.42619593095743014
Si	13.792419758932056	2.861261745066648	5.196430798277795	14	-0.6484325046308136	-0.1987693240847958	1.162925848713833
Si	14.957233666110252	4.173592855539492	6.919138583348904	14	0.048176600157338656	-1.7033768149985355	-0.610918535346661
Si	13.490901615383676	-0.131673485161548	8.135643636559296	14	0.2730529276629181	0.754997621056055	0.6847372830829004
Si	15.005479819071455	1.2617612121854518	9.682185525957648	14	-1.9450185489652043	1.4016437217104298	-2.2402912259153744
Si	11.009986605315323	2.558492354034936	7.951742756444124	14	12.181214892620162	-3.6841049315342125	9.414498851273091
Si	12.200995459806913	4.219434013337928	9.235376424636911	14	-1.0882689206432252	-1.2077170744961327	1.7838917494305686
Si	10.630452368682827	-0.126245996078004	10.91745929141802	14	0.951758397664751	0.42229607840782946	0.7561983272405641
Si	12.392793824037659	1.183907618774496	12.154715552890943	14	-1.240454444316514	0.48017063072223465	-0.623595113017119
Si	13.439567968632431	2.8492530192201238	10.781625814623576	14	-0.2063065193308099	-1.930029004948741	-1.143270519872897
Si	14.702872927712903	3.974677005624336	12.21862667434477	14	0.6725325032386895	1.0210841388540317	0.9277604719380851
Si	13.687444970070695	-0.150702196888584	13.563246469874509	14	-0.12918235859498808	0.49374889502846875	1.1739445776738595
Si	15.009704810573616	1.229115027847608	15.154719518901599	14	-1.3691886592542004	-0.34652971839157787	-0.3645421109329393
Si	10.923276779717147	2.582948554845516	13.394490559297846	14	1.3161074185881472	-0.2860274964399813	0.6934715849659754
Si	12.163880534457167	4.010751933065856	14.893273794754474	14	-1.5363963799815186	0.09706565359889036	-0.9178226356546487
Si	10.902785570931671	5.54960758792374	-0.093859811217216	14	2.1892624986263955	0.10479465330178749	-0.20349758676854815
Si	12.145128072174504	7.012868394827592	1.250158735521828	14	0.936478575857643	-0.6640877078146631	-0.8650363007688165
Si	13.779436035046572	8.389516875937165	0.13441972963795198	14	-1.0910498281574974	0.03860308949776729	0.23931076988342276
Si	15.116548345676316	9.582329476800826	1.6554979202521318	14	0.7851464020401114	-0.21331818064938576	-1.3809954319948523
Si	13.460189177156435	5.618897448559164	2.522953675514844	14	0.6089117876442853	-0.07354441079857968	1.5443711773530218
Si	14.846912638001927	6.831486259646399	4.242330217286172	14	1.4599499626080878	-2.1903007109546713	-2.7364446186392457
Si	10.5966036867636	8.028491352077591	2.5057287101598837	14	1.251770907272614	1.2185059466405381	0.32403511794560236
Si	12.184274243438747	9.286515071780363	3.698866310369868	14	0.4979279696158374	1.0869507149455853	1.7354811786890967
Si	10.77909081972228	5.563566309848184	5.481211475490696	14	2.301304840715148	-0.13426620514451687	-2.024761637580129
Si	12.232910395615535	6.601809221602056	6.880057411953924	14	0.6524236314192794	1.7749080503314392	-0.7779614482229575
Si	13.754086086033611	8.187822281610972	5.447671542950472	14	-3.4023285006305644	1.3247643302010859	1.0986199335516094
Si	14.906143768868747	9.474072194541636	7.0373895955074355	14	0.3484927573035109	-0.3719980592508366	0.5257696977961249
Si	13.705498683758771	5.556887573281308	8.250368405810255	14	-0.5510009827448661	-1.035810658796244	-1.2894255160177786
Si	14.949303682060043	6.774546374171136	9.55749952674198	14	0.36654628752999474	2.187049805387876	0.8647295679041228
Si	11.03892779710512	8.12872115048268	8.138519880774227	14	-0.4379420256125267	0.9532203281497873	-0.636130794116033
Si	12.292564025632572	9.556963277820552	9.45496223297802	14	0.39104275057823756	0.6848028462685642	-0.7910761422399689
Si	10.841783193627407	5.291931856193928	10.955581714741355	14	0.051259355436196204	1.4518556088391974	-1.6836803484724772
Si	12.364323881300027	6.675015324360635	12.17146926919374	14	-1.549931963939438	1.0180422641497648	-1.023029180028724
Si	13.499871597342107	8.217218472485616	10.816823243830031	14	1.544271675577132	-0.7576564010676201	0.46046722221181197
Si	15.19063194666996	9.44399350503972	12.038837035960547	14	-1.5214088928493112	-0.7585794278775532	-0.0784791332395399
Si	13.40073054674719	5.398190392473252	13.607105131660392	14	2.0779153834162103	-0.2487629243718831	0.8745139091999463
Si	14.769709043283612	6.889076143814304	14.994169841819518	14	0.6477300786573491	-1.343540083911999	-0.8608176311595176
Si	11.156837559950015	8.077468753568017	13.608063879732034	14	-2.4360716400654976	-0.2265897120909261	-0.6725332745702856
Si	12.300819009029098	9.48616217022474	14.899188782857498	14	1.1299398530089932	1.1194039776280904	0.5050270485152982
Si	10.823193231017903	10.74984087855348	0.053576142240852	14	0.04509770153646134	0.16919184270287638	-0.7687638331611919
Si	12.231155399145408	12.185964240039612	1.2562037233633798	14	-0.7012211535114339	0.010093388155305314	0.5944351791391916
Si	13.480469136366803	13.47718664296897	-0.168447161197656	14	0.8591623535544062	1.0045987257623064	0.0019062174843577858
Si	15.089427150225912	14.896865037531311	1.281927421624608	14	-1.7251255377911359	-0.6272018595602228	0.1998674431670311
Si	13.61560386456666	10.949634226703699	2.637922194275544	14	-1.1164232952304427	-0.897096698558403	0.4955954628693991
Si	14.997452335217352	12.08648194013106	4.036865630542668	14	0.5098607265171766	0.36793828395032285	0.32118684747194226
Si	10.796835784031352	13.494801607539516	2.728970761147092	14	1.2625929466756491	0.2408374922225267	-0.5131697390642073
Si	12.218009175586763	14.878616324235443	4.009744435092264	14	1.1272977851820092	-0.586819822291445	-0.4946240992794471
Si	10.738433401497646	10.654274820768084	5.142773406200364	14	0.6213597940517823	0.36961541595065545	0.9616597242526413
Si	12.211346688987204	12.157120548053712	6.51550564518678	14	-1.1725428110533147	-0.36960307464511877	0.9279268224522985
Si	13.695537453794064	13.45871043013068	5.3504479884988445	14	-0.8599385702505589	0.7918870688579436	-0.6338119142277915
Si	14.912806255468308	14.760154062501803	6.793753835538648	14	-0.28502193714927143	0.21561880568985423	0.8180107844633081
Si	13.61791135992553	11.106673910845524	8.12059616682468	14	-1.4316168962011198	-1.647026671028446	-0.7447556230132452
Si	14.728661625843396	12.370498868880109	9.558182025369252	14	1.4341460925045495	-0.30544988313891197	0.04323133618456585
Si	10.800524526612085	13.584290177548727	8.130053647802592	14	0.10230428068869206	-0.9138605623563003	-1.4870288438398873
Si	11.984984644275322	14.823041436014725	9.587724465949739	14	1.1900083294930808	0.903799313017497	-0.39293894075184677
Si	11.10961515492972	10.912194302007636	10.840190696830438	14	-1.734881339817906	0.3372130611534893	0.41639667725074975
Si	12.322057716311111	12.237557886267911	12.378510102766896	14	-0.572998588532457	0.5737742910075456	-0.814674261089352
Si	13.485132876986496	13.681529981967671	10.935041756053932	14	-0.12338477320858615	-0.31249291194239354	0.28079298311869183
Si	15.065734697879183	14.840412651075528	12.1602567917457	14	-0.20995054690105577	-0.20257584551127503	1.1083574807306062
Si	13.721846150878669	10.701139726507428	13.297527004323277	14	0.10596090667500667	0.5101029246383346	1.8971232277298902
Si	15.014027301879672	12.28513779056916	14.679050475627648	14	-1.9012010007676448	-1.0440662208687075	0.5912902031115865
Si	10.869099388685605	13.687802469351647	13.641408812664467	14	0.12304821552217877	-1.2640361080918483	0.7953125524759768
Si	12.071889469481292	15.101565875810962	15.091198396663357	14	1.0017576543835427	-0.5405044452753616	-1.0495717286907404
H	10.111469037528078	2.8434079059765587	7.332012877923637	1	-11.29477362584005	3.7928716854450975	-8.328934476316128
H	9.939403008609148	5.0511024655806125	8.152889726871766	1	-0.7536547327473416	-0.04025836710287862	0.07790834785846701
H	2.0116029540084193	14.205407803278002	14.606725121097595	1	0.7973331841470812	-0.9401552564654548	-0.6488785914038593
H	9.853216431958549	4.607512482785177	6.280240243382464	1	6.615221303709534	4.189232253156996	-7.800157613737559
H	7.7483402905530205	5.856566220529517	7.744726297821942	1	-0.34630886044457715	0.4811530500650633	-0.6813987028246882
H	15.983992725961906	0.3962522030071968	16.164994611907904	1	-0.41511318147493187	0.9101090625836723	-0.25802995927729283
H	14.09788176954803	13.923828369626353	2.3061401115978457	1	0.485957417466292	0.4107433308728082	-0.5779585078055547
H	5.075462791584029	13.140328070501754	15.700905295343333	1	0.629880179972221	0.7669532607947436	0.7220586765785738
H	1.770420939104347	9.560249021211845	12.51780807259311	1	0.04694529781951975	-0.049173931911024094	-0.17328889903053232
H	6.023981508802607	3.233294996786078	10.302601153098868	1	0.2430365586028493	-0.017339020058014618	-0.037676463140385925
