219
config_type=vacancy dft_energy=-23069.013281221854 dft_virial="23.99143954133113 -82.7370606156994 -95.7511511955877 -82.73706061569939 -45.45618570311953 -157.76041788519865 -95.75115119558771 -157.76041788519865 -7.778490355932" pbc="T T T" Lattice="16.60636199542225 -0.47354852689291843 -0.0978031215906052 0.0452050779425916 16.185677326674618 -0.6123867615001356 -0.5117593608759985 -0.36610962977614525 16.423680982170968" Properties=species:S:1:pos:R:3:Z:I:1:dft_force:R:3
Si	12.102038981365837	14.01725237030942	14.428876087381237	14	1.0125349565540076	-0.2620521964401325	0.7145471923857614
Si	1.2813255572952296	1.345312090810809	0.8448731048374502	14	0.15310366538311376	0.45946551957908227	1.5430840820297556
Si	3.0833152611251236	2.6256042942478874	-0.21747114692257197	14	-1.8755994766528026	-0.8817875661506452	-0.5056749670559756
Si	4.154559314521987	3.7285035315888213	1.343238737732075	14	1.102122036108183	1.1821014093020294	0.6467234909245111
Si	2.5233105689939666	-0.1039417751370174	2.581361132517305	14	-0.006817028645840618	-0.6098798087973212	-0.4321968907746558
Si	4.037552756843972	0.8949010545649496	4.102511174615208	14	-0.20880897613891003	1.6813295868782656	-1.1198778323385938
Si	-0.10599186944724004	2.6870423312708565	2.499948797364833	14	-1.201161013040287	-2.524404534444505	-1.8902120966293319
Si	1.1156516878476346	3.88432897391243	3.7588097069592274	14	2.834969888728384	0.7073954058272374	1.5300233812244675
Si	-0.19486362392945228	-0.10079685736614913	5.3488239785976806	14	-0.21456825205604174	-0.8441458129320815	-0.0074734318340744215
Si	1.1070991063978566	1.2582445522288415	6.644731122408976	14	1.38786439696816	0.30776259237438514	0.2847910518915221
Si	2.6731468784258787	2.540307744754005	5.127869000420217	14	-0.8112829731720768	-0.3419374671792614	0.7493571302047141
Si	4.056875809455155	3.7621755830309542	6.623941106040965	14	0.22453077095055152	-0.44191823999013563	0.29905554420770364
Si	2.5431502985342247	-0.12758099064768025	8.109357373002256	14	-0.9607786064594267	-0.0897272047941237	-0.30008450055682695
Si	3.8971046831876417	1.0620053382759982	9.504071088131363	14	0.43142993005765556	0.5398660398243688	0.4084586466853246
Si	-0.22080379618213974	2.542067104457835	8.106707534732559	14	-1.1133608516836142	-0.7241250739243769	-0.8461828996772347
Si	1.0251551422508374	3.906798605635088	9.361758990312902	14	1.57101348490146	-0.29525107966548053	0.4012806348525352
Si	-0.4637167131750112	-0.237530173423081	10.918840507079763	14	-0.28871995793124045	-0.4353814618241912	-0.00983807739701461
Si	0.8945538343778859	1.1170156484867697	12.097008442004933	14	2.1147423533588197	-0.35675449002874277	0.12059229572037332
Si	2.4354372802171382	2.4963902057825824	10.791990506299586	14	-0.566799396495048	-0.3853264121199523	-0.5648250447197063
Si	3.7395597533347953	3.7646160923840477	12.202616541771736	14	0.6387494648846038	-0.8565845633604258	-0.04739035615043737
Si	2.2433082229283885	-0.4034532439618701	13.53091152073521	14	-0.45930688238082906	-0.02312323569675175	-0.9668255890618829
Si	3.668467666038971	0.8299143940033782	14.767121712480677	14	1.2669057187396655	0.7246274679039338	0.46331574979600404
Si	-0.0920299629779442	2.2266167338402143	13.785598358616692	14	1.7702574350283553	10.794037494993546	-8.26121413328875
Si	1.1363486691416003	3.7128287829527187	15.067628324329698	14	0.43409488072198904	0.12169632834484491	-0.5479853333148644
Si	0.12092399883158453	5.369329905721731	-0.19968483437375223	14	-0.9186641584259331	0.2753841488566963	0.10074979041213054
Si	1.244016831262272	6.779729998871197	1.2400827767026226	14	1.6192571909076547	-0.7190296574009074	-0.7558869663862942
Si	2.767108980530881	8.013193994591708	-0.29900642128003285	14	-0.045373324026781216	-1.211281140690922	-0.13109911761115844
Si	4.0893533570001654	9.254481243235102	1.0513345475510711	14	1.0231055418567323	-0.3332707853661062	0.2181513444302001
Si	2.6760509018085927	5.203499870256988	2.53952193064644	14	-0.260012024368595	0.5451401481675885	-0.21232187733782834
Si	4.086359621224621	6.464741480942589	3.9667846309667003	14	-0.03929060306037488	0.708569115405885	-1.1512784845030302
Si	-0.22000967537153485	7.9812198332509094	2.5005186371933634	14	-0.512765304197348	0.29697372022997975	0.30269365823571315
Si	1.2078643982924544	9.369715150484422	3.678311109141134	14	0.3153447819635018	0.24715521221519451	0.4287577802984257
Si	-0.16205380826285024	5.052537171892879	5.229074547575924	14	-0.9459739249154819	1.3063847838200073	0.4118828447506978
Si	1.2767601933045556	6.421892183982085	6.522785399103496	14	-0.23742717812588227	0.8697789616423617	-0.4686135123081691
Si	2.651590984037598	7.966591729197821	5.120584021854312	14	-0.9204153382594858	-0.6685778861457697	-0.4138266003727297
Si	4.04675658381207	9.32250649576863	6.305709651245618	14	0.5067311771214925	-0.630749213570431	0.9465637364759238
Si	2.5713233125640103	5.079316321152586	7.926320832860871	14	0.20694363922914263	0.2637185297981205	0.7051248627190146
Si	3.923347219430978	6.397286068237589	9.406279595925014	14	-0.14212067478703722	0.3353472100226578	-0.6138323690059848
Si	-0.20198246843456089	7.872332247123995	7.762178719453815	14	0.5558583149156898	-0.24873669909761761	0.026483413239653274
Si	1.2625939419404806	9.18946966256441	9.045444722579143	14	-0.5741854107482374	0.08885071499048523	1.1098950017120548
Si	-0.39495216407093875	4.952876671502573	10.831169901857107	14	-0.3928862330927837	0.675547124226563	-0.22538026414832846
Si	0.9148919661005323	6.327627717886434	12.0752747841716	14	1.0975845494391858	0.8144958263801337	0.24312449040479844
Si	2.4380406009498117	7.802536005502379	10.699993770133801	14	-1.5883651033755435	-1.6968536636907878	-1.5725006122186338
Si	3.6931834302635917	8.978625603326991	12.013514447070687	14	1.5293749484627261	2.42749648960174	0.9919080070125873
Si	2.3733845471692243	5.082634018346681	13.503113969682822	14	-0.38439284377820654	0.1426688344412928	0.2948332750509565
Si	3.899428898698178	6.211056431447705	14.895038293931165	14	-1.0903885398691555	0.7585760854406371	-0.1380742692341882
Si	-0.46844156586404934	7.639538555774208	13.472721404600803	14	0.1465707438751495	0.6604449657970775	-0.47859634293470804
Si	1.0245404462258922	9.02380742250107	14.690236530484896	14	-0.7274137747393783	0.3564343874163843	0.04702011698433606
Si	-0.07709617225299176	10.564692529680931	-0.3220724742809495	14	0.40648609468370694	0.9100517269350331	-0.7531153148511746
Si	1.4337402673506958	12.184506267804363	0.6743747022643392	14	-0.9461078795026616	-0.08672749621710694	-0.15464761412786268
Si	2.8113106087462643	13.476386321981963	-0.8871392712445605	14	-1.2252191026314445	0.05004065151444602	1.0127038781735411
Si	3.981749987163204	14.672164467351507	0.6340456590061102	14	0.6759569584145948	0.5877803872390523	0.7675302168285847
Si	2.6019750467808724	10.709838874576572	2.060012513652161	14	-0.3300587034896452	-0.18595544939024183	1.1042786792507233
Si	4.012858590047255	11.99184890420228	3.3796801508385	14	0.5619184101552789	-0.5367997396195602	0.9318125339226385
Si	-0.03714923733459356	13.530411457212214	2.1291923979082235	14	-0.22265026451939518	-0.7238021430961663	-1.3014063525886046
Si	1.3354105007873673	14.635354143500937	3.486733616934226	14	0.41109737207539254	1.39064119071392	0.5818431908337663
Si	-0.368196273579743	10.63841119647794	5.111023006655502	14	0.3206194045277856	-0.5628987726138514	-1.7604800357168964
Si	1.1152463207392924	11.844323519556042	6.237960181253009	14	1.475287634284899	1.1155910284383108	1.4815084236069973
Si	2.665707395183434	13.22225104918232	4.859316613824699	14	-0.6923621530203315	-0.3228220704555565	0.23245183222086374
Si	3.86900144546339	14.449887062050108	6.429236970809876	14	1.4448444617416858	0.4861497361442391	-0.6372119439031553
Si	2.680132815682351	10.53743491432613	7.74226256824559	14	-1.0622562767876909	0.23146092823047865	-0.9328744004198595
Si	3.81401439402113	11.947584145043797	9.111154066305176	14	0.5958973667347598	0.11598024699709171	0.7707404989313217
Si	-0.19418413562079664	13.298679362510914	7.693557045642026	14	0.2234051410413907	0.42737221164139794	-0.28728810937844995
Si	1.1657909473958674	14.857305926043178	8.951324793116385	14	-0.5673758383078251	-1.2311580988104547	0.03639733824361225
Si	-0.36264905728976454	10.52259748135644	10.46920697823843	14	0.8962657173189311	-1.5497990377943864	-0.11127538137175273
Si	0.8994896773241351	11.776492643873643	11.883685662580438	14	1.1427282737608777	0.7233645409706772	-0.36149972200760805
Si	2.223576480527647	13.260287442401566	10.391364864052465	14	0.4084743304277774	-0.4479366833235382	-0.3643014554749734
Si	3.783636781004582	14.476574837576376	11.565543920177921	14	0.5645553357716226	-0.013511158457378155	0.9647311666680901
Si	2.312174113809546	10.555980459532789	13.292987609588042	14	-1.317196538801762	-2.641621997321652	-1.621085761011344
Si	3.7097270600376575	11.608745421347313	14.506837818090977	14	2.5256229812557236	1.3628300586869422	0.6786291081738246
Si	-0.28651812392999754	13.111597457989145	13.314829254560891	14	-1.8357933669757376	0.35906925614847207	-0.5686104830825603
Si	0.8020321145799856	14.734614260804724	14.444608982938618	14	0.870773979401259	0.032902949002999	-0.1202079154750112
Si	5.37086166176227	-0.08320824434967661	-0.0156249084178638	14	0.5758751411646387	-0.1632039955227835	-0.19177231806654485
Si	6.860820033945725	1.0779807895621416	1.42510461887052	14	1.0118291881436268	-0.2924845703410012	-0.9664926309229238
Si	8.227683035122991	2.357286156678092	-0.22464979968956714	14	-0.051624195281125225	-0.09534455569758322	0.28920846794206856
Si	9.633235336378428	3.717287821144483	1.0922218012535745	14	-0.4820969028280897	0.19299539286733927	-0.2727094279921463
Si	8.397940543307948	-0.3858912123951249	2.7549512899618294	14	-2.1857125735108665	-0.2832933830425358	-0.40285363708740174
Si	9.58342834495179	0.9698790175427924	4.032434166430848	14	0.6841284453430895	1.0195008521978848	1.0731788464087442
Si	5.558114684366658	2.4077194735139336	2.756838572892472	14	-2.09624787856993	-1.4504607842030173	-0.5142832847783634
Si	6.71556237922935	3.785362913896252	3.9563846387608703	14	1.9704588647764738	0.3540314323841739	1.1479692148454674
Si	5.3507677471089945	-0.23789068433500835	5.595715806346616	14	-0.3731591704134155	-1.7994178831273469	-0.08465647088172767
Si	6.799107875722443	1.06143383710686	6.808597453275111	14	0.43515134789803794	-0.6207504420909072	0.12036758111539239
Si	8.150801175808425	2.3516608573795397	5.404073521855999	14	-0.1469492105782753	-0.09796836867679434	-1.0828600863812297
Si	9.575742983299365	3.550705198384334	6.717512793103095	14	-0.36825581545736114	0.5590053478275511	0.9088242812551944
Si	8.051464636836673	-0.5549359419362708	8.121571549151978	14	-1.99591666410392	-0.18206793814617794	0.12422295354295443
Si	9.424642393664795	0.6924035705419211	9.273483657108947	14	1.4842415085623146	1.7332227197758785	2.6375388249627254
Si	5.427041555761046	2.285419884658958	8.16118953863	14	-1.267158458392636	0.9107173861024194	-0.268484587730079
Si	6.659101718667829	3.6314795787433494	9.566275003174601	14	0.7009349894893013	-0.15681865546019574	-0.2851898303266771
Si	5.263946086937005	-0.321012538973071	10.901740328202033	14	-1.040691645136013	-1.5567466785904904	-1.0990485368084781
Si	6.721563141505302	0.7145907743612269	12.199803892122459	14	0.07736533041485175	1.974456676438772	0.3802081127591335
Si	8.12170777908183	2.1191030763960823	10.82784555930058	14	-1.0327757260763413	-0.6952914133115762	-1.3551941329966344
Si	9.36752716490374	3.4974509251961763	12.05237486523148	14	0.8930189255206481	0.5072253435640249	1.148516860278659
Si	8.06418053785	-0.5929324629809241	13.52074743889571	14	-1.7032544303852963	-0.7506488535175566	0.7015831651405107
Si	9.213816609174064	0.58006039595045	14.9851876193409	14	1.035360458254686	1.223241922640251	0.6959881828533364
Si	5.159608912735292	2.1920375904261347	13.399183823930061	14	-0.32715875379905024	-0.607377609099753	-0.30528636084055055
Si	6.567420637217557	3.4543740245723815	14.662917445527603	14	0.2274024384826249	0.34352178227753666	1.0319876822957157
Si	5.581730641108809	4.993657599406168	-0.26038025214496285	14	-0.0359119135591683	-0.23483087597359673	0.025577098614301075
Si	6.913818460680257	6.422772694504303	0.9397589123204775	14	0.5477688462469079	0.5071222422406869	0.5500152209651213
Si	8.353027861312357	7.84992408500383	-0.5082373187871232	14	-0.4876887997888797	-0.43955539420091955	1.4640171941140299
Si	9.644934496939683	9.096934652041647	0.9961514579170717	14	0.0038929105652362062	0.6455680361936365	-0.44649994967063955
Si	8.127020746346087	4.996177853108444	2.4850980736702786	14	0.28436604818210165	0.30888487984662977	-0.5013382837124818
Si	9.44080557643964	6.2677596477379875	3.9274241492829116	14	0.9063470212792317	0.7117799117296859	-0.4271549532418453
Si	5.563399408840579	7.7617949497733765	2.387009201495104	14	-1.297380515878317	-0.3779902773099738	-0.34993386183545394
Si	6.879825770500787	9.16783070114573	3.5919197361866058	14	0.5912776046955178	0.20297899482547427	0.4523978081645272
Si	5.472020691380955	5.166736063943441	5.282179300109365	14	-0.5910706307172459	-0.05650441028929829	0.6730364398814386
Si	6.858032304405567	6.529500537840869	6.529223093959341	14	-0.5895932736002887	-0.24940210115447192	1.226716771480431
Si	8.168549277523264	7.842341726469101	5.116747986390533	14	-0.2097818823920541	-0.32598401577827457	-0.1873942399273967
Si	9.388676030843069	9.106032153210835	6.600139079150721	14	0.5760111526360745	0.3188422565304993	-0.45934004963945907
Si	8.022283189057855	4.9533601216194905	8.0455635549972	14	0.35370721600330324	0.13246566008881716	-0.36794342616096315
Si	9.468933734273008	6.282828007052185	9.338857410032173	14	-0.3624975679823575	0.5471569231807127	-0.15595990628326628
Si	5.267170749057055	7.85044574595473	7.893881496149843	14	0.003291014809789541	-0.4417264355332526	-0.4185008698447589
Si	6.577780757248796	9.191915155939327	9.276459118137804	14	0.16263115325745447	-0.1666143096194279	-0.14686976342388272
Si	5.216297176960104	4.964677173840913	10.838283762340392	14	-0.742948650194245	-0.2253224142786251	-0.9899801922435404
Si	6.525132873382542	6.314126002765543	12.019038404592155	14	1.2887585712977323	0.8902945823234192	1.0761394741848946
Si	7.930691820000414	7.714204186717754	10.60840904643879	14	-0.8136748724514103	-1.2915538770017971	-0.8984832956575589
Si	9.126003128659123	9.003813188284271	11.94133418167665	14	2.582407384914386	-0.10507593222381169	-0.07901469447772673
Si	8.05294156863715	4.963382989507314	13.451723720656796	14	-1.2521252055857304	-0.8829988138669669	-1.0627874671468336
Si	9.34475516919043	6.122453814143982	14.884101688708965	14	1.0069191483137399	0.6174797390131468	-0.7161358783630808
Si	5.125754113826284	7.694121901448733	13.40153794357154	14	-0.6341279030716376	-1.3246501731248712	-0.678687729375124
Si	6.537722512509664	8.899926237387318	14.633353889408955	14	0.2931512579505156	0.5634515602576831	0.3134431924687203
Si	5.514868327000851	10.419931615806336	-0.45406764692397944	14	-1.1509995195757943	0.15236035883505897	-0.8433050614923928
Si	6.637869785698101	11.899511593211864	0.7259809255694006	14	2.7690449485460626	0.9320943270657267	0.7340461980232323
Si	8.347734830135396	13.441966667266248	-0.4319319446635204	14	-1.3445546420713297	-1.2427776950837999	-0.7627029665900068
Si	9.848329104891011	14.469892925651163	0.8847270046818024	14	0.2377850759864469	1.1112445748946005	-0.886851358078677
Si	8.183825304413455	10.581654817288202	2.1812488445180422	14	-0.903138538950219	-0.5791065063310008	-0.9807398968334602
Si	9.536958986806539	11.849885687911492	3.436232185133458	14	0.412928770394934	0.27025993595364123	1.1343043042899446
Si	5.406656906501376	13.310614433438499	2.023150688242745	14	-0.66097487060356	0.503893191069113	0.3364682119422424
Si	6.74286152809935	14.566657709361792	3.4843147050090364	14	0.7699611969087848	0.3229794221011495	0.24435784962687346
Si	5.444380967686325	10.512680939267527	4.835627558095797	14	-0.8310971963217979	0.5837769191450498	-0.38032484094066826
Si	6.698890826228472	11.862050023842976	6.221629203076763	14	0.7871636912742995	-0.4881991641949291	0.4452745608750569
Si	8.158361936915252	13.176153831333254	4.8684938593430696	14	-0.050313445788913724	0.14994840493422806	-0.09900143879442985
Si	9.545162686728647	14.43869461037428	6.326615961456186	14	1.147041045824894	-1.193763171702625	-1.3360224290664184
Si	7.953267777521981	10.49011162710839	7.8398364248322965	14	-0.2824937692879698	-0.0951458092563358	-0.6465031471985744
Si	9.403094805979554	11.738612416671547	9.112775534738544	14	0.9183985632463618	-0.44116490613133225	-0.04198820676227425
Si	5.421291655916896	13.077588154403596	7.73041388702962	14	-1.9706995202344397	-0.2083325503230866	-0.933073661082171
Si	6.710290945480293	14.290873507099823	9.037797571760702	14	0.691241665321811	1.5674910706128575	0.73609022675275
Si	5.2362149895089365	10.611244954856577	10.599270011754403	14	-2.064779863446106	-1.850575422792865	-0.8590083443457294
Si	6.567241212431897	11.651254143483186	11.98933363452183	14	1.562069895045325	0.5941950379022899	0.14787763670938078
Si	7.986695611894745	12.92371478729434	10.520974351582463	14	-0.697473767507318	-0.22406231556122053	-0.6615626252797457
Si	9.395839731544594	14.218605190653564	11.66248812867421	14	1.471138384519244	0.31887876622604533	0.30373932676941745
Si	7.916969146578664	10.258751672703273	13.3143092549506	14	-0.21458033625104644	1.441394552623111	1.3386848086254315
Si	9.325342404186419	11.637725846912568	14.817360652465387	14	-0.24967592387106774	-0.8611778430148702	-0.8254003982639457
Si	5.178280719828155	13.066139856274143	13.040003645829717	14	-0.8064703782338235	1.049091960438001	1.560472724420449
Si	6.5730010803196945	14.547062196890904	14.546872804061596	14	-0.3630773522320509	-1.0145180500874376	-0.8350924368787759
Si	11.186341265070444	-0.4293801254896939	-0.13168450194934145	14	-1.2843699516267713	-0.5350477884544114	0.06028830598896022
Si	12.36259865829646	0.9218380311824129	1.2042443371077096	14	0.6105457250752395	0.7194762583950172	0.4465703979564115
Si	13.765743677010963	2.356035167200298	-0.16762594466194808	14	-1.1359770654112331	-0.3532457025983367	0.40658431090693664
Si	15.24108225184437	3.595852129405647	1.021397189795632	14	0.17284332647855066	0.81262457592813	1.0108912489228368
Si	13.71825093305121	-0.5165988460669859	2.519991210459262	14	-0.7417682557417651	-0.30155234458409946	0.33051430335237547
Si	15.088596104142763	0.7611515062399139	3.8076996383702744	14	0.22481796341481206	0.9458705664816119	0.5481573402607823
Si	10.843962224538398	2.300054634074478	2.4481897307238394	14	0.8551213473227295	-0.39873266948026836	1.039442859282017
Si	12.302845220649962	3.5382517891870657	3.919888308285205	14	-0.6523115312273209	0.2651655478722998	-0.26972386049439034
Si	10.94773786561462	-0.41936390296430304	5.508468842978989	14	-0.6829048563212309	0.2841325918190322	0.008694706861144758
Si	12.324479198046818	0.8723649692179721	6.895485567071418	14	0.2045406841969322	-0.41056952415316617	-0.9068501865903849
Si	13.544605951366623	2.0833809306437265	5.241856902213568	14	0.35852083938368445	-0.8186175653188631	-0.2689795255042075
Si	14.918805432668641	3.341995961828143	6.540254395596195	14	1.1220411603549663	0.3415407456283625	0.46290103050786413
Si	13.676567897197494	-0.5722637244772937	8.184076166845257	14	-1.4358576773161722	-1.2322320495026806	-0.9379983562123827
Si	14.950548667664933	0.7119060479387636	9.404734549159611	14	0.9528020093141991	1.0882159558736302	0.9578133506936999
Si	10.923417500454695	2.1938650650948905	8.155162194904321	14	-0.8681594224012003	-0.3012733796568634	-0.36380034704807657
Si	12.288552707399681	3.4459443823275926	9.489946370282487	14	0.28017000429961997	0.6209934115436612	0.6819327213996829
Si	10.85672298174814	-0.520664146534664	11.012299222980554	14	-1.224078303200895	-1.6014324890546643	-1.8294900451728628
Si	12.152184886276501	0.7024231157485278	12.313672177392037	14	1.4870396424822319	0.45421120874682763	1.0286614433430403
Si	13.612993376152689	1.991940743581608	10.879489993439623	14	-0.8511027097073381	-0.42074390212605617	-0.25452374295220687
Si	14.909747803674044	3.1841935241810626	12.314303486823063	14	0.11186107916368247	0.6055102153057295	0.39439958568422284
Si	13.675411604134354	-0.7216564559668808	13.980506838742562	14	-0.8684530426287613	0.2695040309895177	-0.7207535835180668
Si	15.711328033608664	-0.24460582307238263	15.591140008666406	14	-0.8089975176529971	-6.267193402247906	5.868568462080551
Si	10.594362411598489	1.9419493433474837	13.52059293421917	14	-0.045444800754681325	0.811254691013555	0.16624201356907045
Si	12.053140743251749	3.315386269310448	14.762067914351263	14	-0.5555405262981196	0.2583922280169017	-0.19589637100006235
Si	11.169016805210637	5.007901933778817	-0.25729348129537316	14	-0.8728213505676929	-0.6682140747429688	-0.45057977959265044
Si	12.247979447072083	6.24696630868876	1.249700277482103	14	1.4038785264547025	0.8357755795623394	0.38073056136018757
Si	13.667141450587929	7.579130549928174	-0.25364351597968504	14	-0.1113355452362442	-0.30258027249109465	-1.0699955609118688
Si	15.040327514119092	8.87194926154927	1.0070465296240734	14	0.6260924276145788	0.34599518559551906	0.18139482277336316
Si	13.791107364072689	4.883675189818608	2.617982063538567	14	-2.198268052120746	-2.0844400773871503	-2.9665716574296312
Si	14.990392599465638	6.1298118916966375	3.766016602516558	14	2.509111342889733	1.9563396399108801	2.773510701376628
Si	10.870944057352277	7.7574106719089695	2.4567655709421286	14	-0.23541297421807827	-1.2757148397875568	0.5135746881521306
Si	12.189618212855056	8.953879934971427	3.943489312961885	14	1.1107262400620586	0.014412330872090059	-1.0498100701539184
Si	10.857791223759058	4.928521418189881	5.348207621232128	14	-0.1756309188666552	-0.4863687943175158	-1.2305986262927906
Si	12.162832418232917	6.16286592443261	6.701932740881647	14	1.2570948950590446	0.2849309200209381	0.62930708059636
Si	13.561593159083015	7.432153407682561	5.2362000374434645	14	-1.369787983904327	-1.1252853810479293	-1.4087119473460488
Si	14.928944594399022	8.7157765990386	6.316875521471717	14	1.4634168410217754	0.9887260070683723	1.3022090516695548
Si	13.744628037883793	4.695069835959341	8.06487165554291	14	-1.192864313282701	0.46111796896834134	-0.8668908390362393
Si	15.144265966574892	6.118998225679426	9.206461854302624	14	-0.7268848983750238	-0.2649994544686182	0.936650582803561
Si	10.822034189853936	7.714259010957817	7.897008139174025	14	-0.67250704929602	-1.0645851839866813	-0.13473928852342412
Si	12.19400249071946	8.840345579164048	9.290618724139446	14	0.4781163175714364	1.2390200246584036	-0.9554404775937353
Si	10.803953820017506	4.8885960806993864	10.726591833267241	14	-0.04245949036745739	-0.43479807802704956	-0.09909374147542316
Si	12.02198230014946	6.285004363248613	12.10982236211413	14	1.0769935953722478	-0.6194751738521137	-0.5410667460088779
Si	13.50477697163139	7.4221637666068965	10.494758396788855	14	0.21217532433457992	-1.096202323219074	0.4719762609563907
Si	14.950734737813024	8.616704213223512	11.802773390950962	14	0.4292570889515985	0.19348030333071922	0.3178408110083016
Si	13.417594800547475	4.76331604679373	13.472126644663152	14	-1.042839803630997	-1.2462977953776146	-1.5369645942572712
Si	14.724318933057194	5.893527723729526	14.793618433837032	14	0.981812561973026	1.1381738177967675	1.581064449818983
Si	10.586971107233675	7.635499836756257	13.326473590882083	14	-0.8234736119370267	-0.46886368085581953	0.24238581184631983
Si	12.113769707398642	8.824645910418825	14.531425659088784	14	0.5126987125695561	-0.04088623102205878	0.724977652448538
Si	11.240589019942162	10.383824039032934	-0.36153097506060744	14	-1.6710492793661855	-0.484341734883111	-1.3355110362182407
Si	12.412035170767526	11.65158475026417	0.9805896804423104	14	1.836246395733148	0.3097577701028201	0.006858423441495001
Si	13.97052384302933	12.838315234682765	-0.41621067849039495	14	-1.2538702147665148	0.8775753243046466	-0.8503336921060818
Si	15.297679142335744	14.548436125573687	0.4613376734244124	14	0.26335343284265944	-0.40301947338055133	0.689157270238767
Si	13.727718913175975	10.295952411596714	2.338057800481563	14	-0.9339972021131682	-1.0063830728544891	0.41525819181498813
Si	15.196335703909575	11.636609426024018	3.3817784240263533	14	-0.10088580188356636	0.587322473381534	1.4139516028779786
Si	11.093849449403486	13.048232265860943	2.120739496894923	14	-0.4933958822680124	0.29002119433376733	1.2938640151319503
Si	12.318446870299313	14.44125307491054	3.5087596707145603	14	1.0668734677216132	-0.37672760748724904	-0.036578858279214706
Si	10.670925293516326	10.363992616195716	4.948715013279634	14	0.006963581649089057	0.19253953589407705	0.6544409206534676
Si	12.280897249878203	11.535807584636045	6.175530323887088	14	0.1010233560181943	0.2848049358602509	0.9085265472591212
Si	13.707219631414356	12.941507745205593	4.872743568618231	14	-0.283712216099188	-0.08740806779535013	-1.043558941789042
Si	15.058630503596985	14.279068020739661	6.1397350791479814	14	0.6579401949941891	-0.003449137786978648	0.4826864572779995
Si	13.671515760408688	10.124855926404736	7.666738024207728	14	-1.069356127018748	0.4181961938643214	0.7024843375552225
Si	15.042407512560258	11.470787697262313	9.08713440379529	14	-0.2473475308931416	0.45829798065320304	-1.3887349732295622
Si	10.942381703494556	12.942748766639738	7.6669357237400755	14	-0.9403108083373237	-0.4441612722714328	-0.8587543191400986
Si	12.253789155178119	14.222165443576422	8.955601083841273	14	0.8657801215379354	1.0994509147910814	0.7815183153228504
Si	10.752330983306365	10.241284337551182	10.505736535526253	14	-1.4624380212263948	-0.5820139122270243	-0.5555266423293906
Si	12.105776997733745	11.49665643186886	11.727619325868675	14	0.926698862551396	1.1434229864183818	0.6251478035199565
Si	13.663348609979957	12.854360462274444	10.314695656335719	14	-1.4122641864563652	-0.026287237903725974	0.6259157926790847
Si	14.893901936955322	14.161965105306384	11.796074865619667	14	0.8603355489119897	-0.5087407530397202	0.10356129407971246
Si	13.562373989168757	10.093248921338297	12.949954000856462	14	-0.8172165700299144	-0.2295125446188704	0.9965910182427052
Si	14.771839919807285	11.290067065928426	14.521097104529098	14	1.0606462506362144	-0.5458657140889344	0.15219272276818532
Si	10.618347185955606	12.787072844970847	13.144932257287863	14	0.38805229798037333	-0.15493892036063547	-0.3523720410105503
H	-0.9658120557345062	1.2172808768583716	14.738707804062738	1	-6.327004768199978	1.9612468515249148	-0.4341601867971208
H	16.359038219115245	0.8021567151255825	14.437127966180974	1	4.389350636203274	-6.077360983145413	3.038816631599408
H	12.87644134029484	3.376221239692727	0.7519792447433667	1	0.182833356199986	-0.48544731017077464	-0.3478109001726077
H	14.361934028924097	13.594472751055152	1.540031178107369	1	0.018261018425819717	0.28831449462225306	-0.22810306468236524
