219
config_type=vacancy dft_energy=-23069.153302221966 dft_virial="-19.3513323727236 -124.63423221830239 -185.3689163474221 -124.6342322183024 -67.89105562090397 55.94015141350185 -185.36891634742207 55.94015141350185 -134.66417422108918" pbc="T T T" Lattice="16.685162349246596 -0.6323801020428166 -0.8107317187573692 -0.2290035427287146 16.297315703882052 0.4739382027813554 -0.32474069793766036 -0.011451012976799 15.790027470606223" Properties=species:S:1:pos:R:3:Z:I:1:dft_force:R:3
Si	12.07283474337299	14.516342163121593	14.224503485243694	14	-0.6800015641937196	0.5624660555884704	0.23846641889628611
Si	1.2343005095673478	1.205947132764503	1.563853976316717	14	0.8999714514168605	1.7169018574246424	0.27134931327778794
Si	2.716360819615189	2.4386645606838178	0.07824134472497817	14	0.4883395465454092	-0.6169626897332651	0.20976028510736483
Si	4.082689001283939	3.9458836656660856	1.3415354848134358	14	-0.5679779911738039	0.36533555403473694	-0.9612084952689555
Si	2.798284876980735	-0.05251919338570718	2.5496089954620977	14	-0.25382903029470294	-1.0637493176471011	-0.044379848931075994
Si	4.071100910487565	1.277346288275753	3.7450412564566635	14	0.5700222770138537	0.39558512234734317	1.8941564293009712
Si	-0.08180703971468797	2.636058292554387	2.9795402031172875	14	-1.4100476365598655	-0.9800369566389319	-0.790885623335746
Si	1.3800409786685581	3.9156780666182343	4.0220370811636155	14	-0.553170481414007	1.6390580443097111	0.9945554741607437
Si	-0.21914564148430823	-0.0849046641009666	5.48539797060438	14	0.9340571088671278	0.9250140172351029	-0.8112986569145295
Si	1.2014887602668207	1.2578461326006638	6.782028767741498	14	-1.3863086211389384	0.7400947232888807	0.18890604985564377
Si	2.5430392902067953	2.5112806997639883	5.390474923909259	14	0.8308609117428762	-0.7239931762214533	-1.2102696678579759
Si	3.928424632158102	3.8875804569665497	6.477227877510007	14	-0.6667202625519627	1.9588233276501434	0.19876829564266776
Si	2.5542763280505976	-0.14097116398839166	7.956596781588119	14	0.14758324515022384	-1.0566091010625178	-0.4899881392766881
Si	4.0615990772379105	1.173287506410091	9.004354438880869	14	-0.031958067797844575	0.7897011151147536	0.38275427835767617
Si	-0.2827932134665922	2.8795686806280156	8.17563877886738	14	-0.16074550461565787	-2.335953313119996	-1.1445054217581643
Si	1.2027742827455299	4.035826775476844	9.30386445961286	14	-0.3263833084344936	1.1826410843087283	1.1775819203702729
Si	-0.2223669702443508	-0.02105983379295092	10.69963595391816	14	-0.44332977681089697	-0.25387839551684976	-1.3991538633183984
Si	1.2230935619766237	1.360819993674801	11.726051263375172	14	-0.4614115891959023	0.9932712070533298	0.946374246013829
Si	2.6439904176018194	2.653535714550363	10.383618086011586	14	-0.734647579557615	-2.0124776676920577	-1.162281786831136
Si	3.826248162790524	3.7906614234839404	11.777697839421625	14	0.1820483977457448	2.6846013651848435	1.106912519540683
Si	2.5159279721837695	-0.01474923905026242	13.035724513540757	14	-1.8420799765940319	-1.669388859550434	-1.0293145040943579
Si	3.8240967096954672	1.0118783738590211	14.354192476008668	14	1.1161535862823593	2.8617934592018925	1.314729820357612
Si	-0.415725264841053	2.5970245475896783	13.294749770437402	14	0.7404757610973266	-0.11907920023946618	-1.0410009491060268
Si	1.105373805213677	3.753613635222361	14.561487572822534	14	-0.6960609451338966	1.1012925975319032	0.17083066523393872
Si	0.052497461536262155	5.2884255022768984	0.11698756060472229	14	0.5306985066948487	-1.517324434937724	0.7878110955939128
Si	1.3015873304913095	6.769965919618786	1.323553215238045	14	-0.7295045975857227	0.8041990637940046	0.08769808847546284
Si	2.634393298550753	8.158174730317219	0.0251504365307943	14	1.1190800183577518	-0.8778321777261294	0.5159388194940068
Si	4.099248670561045	9.37987745392936	1.3982689853107502	14	-0.2705664117078029	0.6575285610324334	0.11786435297569624
Si	2.5338801515060827	5.405357897417645	2.603348515778179	14	0.7342891674759863	-1.5956181914836813	0.019764600817042313
Si	3.84389943958206	6.6839144825394134	3.8979214739409263	14	0.676777655232786	0.26489275359783215	1.3493407546247853
Si	-0.10693072935385764	8.106123607534943	2.7940271061702378	14	0.4862741776417342	-0.5810042391678021	0.11221974835584314
Si	1.2311259878676484	9.388827632539256	4.207367964911472	14	-0.9145159371024062	0.5351958841208518	-0.2900703024453822
Si	-0.29264777134954545	5.379709300030342	5.381914246908648	14	0.08344933693391814	-1.4183232532538264	-0.8028775156594486
Si	1.073683753680658	6.622687504249159	6.619447787001124	14	0.4019244396247003	1.207516271170629	1.216818787329457
Si	2.54720679025806	8.043520836006746	5.453269938721008	14	-0.49619453040899364	-1.707566945338781	-0.9913673035637603
Si	3.7146868778241506	9.3247220200379	6.789646616812341	14	1.1310264021172878	1.8411795755109162	0.23054587184703795
Si	2.49022922437467	5.345006879828097	7.975556984388536	14	-0.7872025149646338	-1.5863254455250702	-2.487414299314067
Si	3.82766574804663	6.578392980038028	9.08695218357921	14	1.7459167809625136	1.2232519499509993	1.9361315234261125
Si	-0.343654093677734	8.074620784243296	8.038056111711686	14	0.40377563545520684	-0.8369580308990754	0.42640496181995813
Si	0.930751708200035	9.318264317391277	9.530892075722804	14	0.5624709406885787	0.32572741946732375	0.17058126801788437
Si	-0.25081396116788196	5.478614290216081	10.689560734179304	14	0.20458696409269486	-0.5760618034108814	0.48375629420171323
Si	1.092774347577745	6.750863623956613	12.122690949361319	14	0.1009801614488158	-0.6746660064333483	-0.6437482078480357
Si	2.513383674117976	7.835826207499236	10.63611710135182	14	-0.445727589632467	0.9003357770407255	-0.13026376549264235
Si	3.8466042189976015	9.27696878840356	11.92743696882072	14	-0.6682804092602286	1.4014650298906792	-0.7025447585302461
Si	2.4018558227661333	5.195951467846158	13.302489652201283	14	-0.1722260040911831	-0.7250990086196489	-1.1979309334265849
Si	3.66296173278355	6.627993418875196	14.4626711817153	14	0.19066082923664485	0.6766812387832805	0.6204434521156815
Si	-0.27622517989201656	8.130369664792678	13.385836309865114	14	-1.5237195452005283	-0.5628805177660783	-0.9113979576806626
Si	0.9304775525608825	9.45762565284001	14.616566109400573	14	1.0987451463807005	2.324135741736999	0.9153502607787943
Si	-0.07216980032618488	10.884849820015159	0.35330303483132286	14	-0.5124081776683794	-0.5038823924267684	-0.46492320484216054
Si	1.1184797821097503	12.305953964050445	1.6502915716439208	14	1.53176684774206	0.47993511747490925	0.632518905362289
Si	2.373469012348757	13.896394350642055	0.22685208963365763	14	1.1371895986802147	-1.3074062839637022	0.6826778277214618
Si	4.018728825005793	15.107470199875584	1.5116858358835832	14	-0.6594026397002893	-1.4021350599371099	0.03272091474633251
Si	2.6233702358399484	10.718006053422108	2.9341055926506567	14	-0.6429066850767513	-0.08095562188390652	-2.1384520581790967
Si	3.936724526965373	12.076744804592368	4.07484714699574	14	0.3419413238372416	1.136347047466802	1.2556453058795451
Si	-0.12968397572279358	13.837596324447464	3.082749771173867	14	0.2762922632557726	-1.521469570934867	-0.4047449421609027
Si	1.134173520770508	15.0623598954699	4.494878661388361	14	-0.11185850805836231	0.49848821346509775	0.03092576901180512
Si	-0.34370758746098323	10.73201640959124	5.431115154052173	14	0.5113740791086158	1.1006341374594135	-0.5750367037197384
Si	1.045632951089317	12.032749511231287	6.775016067093664	14	-0.17107157780243662	0.7160736576143332	0.885428508394507
Si	2.415160729668665	13.485189310485566	5.491145208942225	14	0.08891936350253318	-1.7388305575896534	-0.3887755499069309
Si	3.641443858471527	14.80011498149394	6.800982283819009	14	0.792398975927185	0.9688541911594797	0.8734638697871978
Si	2.3658511632779144	10.689281563497971	8.199172700135613	14	-0.6736434778475255	-0.3122550847002799	-0.4565200613243206
Si	3.6795163870184755	12.13794837935245	9.368087089765075	14	-0.35444820855656994	-0.456265521897626	1.1987598577818008
Si	-0.20105805602314542	13.555740923868461	8.4419057566714	14	-0.9700592682230332	-1.765790139534598	-1.0652171616743735
Si	1.0073665075780898	14.777945151698564	9.868141960537164	14	-0.38599541372425483	1.869464048027333	-0.4217988266389128
Si	-0.4565911718820498	10.781884317344653	10.933403786717513	14	1.2422094808080473	-0.1947175192107745	0.07484667564323468
Si	0.9952033586117847	12.140838715328636	12.24748693063971	14	-0.6046041577909093	-0.37384257020751094	0.6870852164612598
Si	2.3686244816032445	13.425779449145061	10.992444206617455	14	1.1801088026789146	-0.315278961667306	-0.31014729255882245
Si	3.7175655120352524	14.868806014228193	12.236804890797119	14	-0.0035825781530943335	-0.3043612771463612	-0.5310070393332665
Si	2.6091241726883747	10.798507510489369	13.428669785121247	14	-1.0013725028065845	-0.29809729325488443	-0.1316935571611767
Si	3.810490900262158	12.338163908289419	14.780669991282824	14	-0.8526191476251613	-0.9932370113525719	0.4871573523192052
Si	-0.45977405198538196	13.733472347033466	13.62534302259868	14	0.6939644658558479	-2.2103422198146934	-0.4073828962193746
Si	0.4881391305533127	15.268269168961464	14.968662190747335	14	1.4340121379173698	0.6281143448383433	-0.32319745183229814
Si	5.7562303084725785	-0.19031583567439936	-0.42833809592279726	14	-0.3674803700928045	-1.1506040835775555	-0.28128123601898797
Si	6.9560958667539285	1.0672026475038625	0.9122462025572372	14	0.6625694701231157	1.262314753080009	0.8702363612788159
Si	8.48140757223954	2.3350671626986803	-0.35194897344282544	14	-0.7089552954249713	-0.20233313316905308	-0.9313409932069231
Si	9.588941188951907	3.8069135035073627	0.9741886601984504	14	0.30047762256027755	0.2505123044317119	0.5819540054730648
Si	8.491818799804431	-0.2097658409276923	2.1006574045003354	14	-1.187113522013126	-2.202854132680294	-0.6756512539920292
Si	9.650838511213504	1.0420471959308886	3.477946796693009	14	0.9438033978042129	0.9463822164403216	0.8755145833905479
Si	5.491312377014879	2.4265649355851204	2.325682347099885	14	0.4722174306354206	8.227537024473852e-05	-0.08624489974851515
Si	6.882072172502011	3.86048084070861	3.470638208556576	14	-1.200394566544351	0.9165311694523383	0.7440010036017816
Si	5.448129520486898	-0.3253274578726759	4.9428138704683855	14	-0.3699799986850525	-0.06249457146417928	-0.4921326982242236
Si	6.669949261749897	1.1577776526292527	6.187079268846639	14	0.7511887856347875	0.32315477148398364	0.15814226047900798
Si	8.095884563084885	2.4111888162624058	4.674039371574558	14	0.17756901805698283	-1.2832654047812355	0.8349577109600002
Si	9.440631346574005	3.534158732803643	6.124202341679291	14	-0.48476493881880733	0.7059851545591361	0.0804012915768826
Si	8.10748268396562	-0.3466246703287955	7.386329648620622	14	-0.016779033319286363	-0.1338188328188111	-0.8367579989051678
Si	9.566640968059863	0.8118784917357756	8.705992862808008	14	-0.9315546520590275	0.15716678312054377	1.372309724002328
Si	5.325909599208105	2.6136494124151186	7.5880396601271185	14	0.6584742135691838	-2.0698613960008467	0.5523436139430473
Si	6.50120980921295	3.6755762355460204	9.183984891351225	14	1.827824997367535	0.7510422326315391	-0.6076141507892067
Si	5.3686461169821005	-0.29414392559979874	10.263890640696063	14	0.059545256551437414	-0.2932440748525729	-0.6525992379126455
Si	6.6462047087101235	1.101488819205198	11.50736199072921	14	0.45576518480232514	0.2357587878836382	0.6890927354952313
Si	8.167606352976357	2.285311257553944	10.172344389068554	14	-0.005073305017716189	-0.04788297992977775	-0.0031236358534479014
Si	9.628290881573932	3.612329866938106	11.50686550155343	14	-1.4479202750361788	0.42164867408821616	-0.24286789409384762
Si	8.120083813282278	-0.3565745140131616	12.658814003489237	14	-0.05966841249627252	-0.6831154298469511	-1.2873467773664389
Si	9.481559105801884	0.8396802138988624	13.925760765965183	14	-0.4615476006673382	1.514874428678155	1.1683840481979755
Si	5.174448638660675	2.465563575254573	12.931090673505166	14	1.4670829800977743	-0.9548684066600023	1.0236701565850368
Si	6.733130434809477	3.808543392215739	14.20722332157345	14	-0.709611955723737	-0.026006987423829835	-0.04582275323674309
Si	5.416924256364576	5.204769583678657	-0.22916068071700937	14	0.8985642854751433	-0.4077945301811303	0.7073614672370114
Si	6.735290246308167	6.614071661784572	1.1847686096399677	14	-0.38303452883757233	0.6529360527095848	-0.7531772784893901
Si	8.354309686600704	7.883408927699471	-0.12149106848202104	14	-1.1629047656502078	-1.236682632811857	-0.7532785800390039
Si	9.653957867449225	9.085417580672246	1.2308066968488791	14	0.4679290840719456	0.43096096044726057	0.3266838706464189
Si	8.209480283495457	5.316160357210923	2.2544219410889377	14	0.8543253331156115	-0.9001370305994781	0.702856376495048
Si	9.597334697879864	6.459085126584869	3.8077209252982813	14	-0.5187271832137074	-0.3100495905566569	-0.07485104652227893
Si	5.382641428024693	7.92917787431141	2.7212421273366862	14	0.09648098424908869	-0.0015040966122866263	-1.0098594643578613
Si	6.720880358445392	9.359197091661335	3.928229045513097	14	-1.0838095955759603	0.3492172947827286	0.5509228211431336
Si	5.288525803120491	5.19998021839712	5.063736567503383	14	0.5185811444315229	-0.13295391298911327	-0.5670243682105609
Si	6.687266202396126	6.553194064766164	6.400666571915202	14	-0.2133793729560053	-0.74324278464287	0.5408194056770796
Si	8.043875232320772	7.9292514282633775	5.096703783111479	14	0.45945960603684594	-1.3340884436446028	-0.4616548157591883
Si	9.405415720388712	9.195628147611576	6.332385100958949	14	0.2692952572375217	0.5781953066055403	1.6350957139008309
Si	8.095030334233623	4.823826979714722	7.598694953078085	14	-1.3917987023290506	0.8046137830821445	-0.0788491152951092
Si	9.399312414056114	6.3359507959486585	8.727077771811858	14	-0.4738799073354284	0.25465358377087444	1.3019470560374315
Si	5.20921792609198	7.971605131150995	7.8015517375629875	14	0.6143090519323402	-1.4199618186743568	-0.16784046974660652
Si	6.556686205803906	9.12296018642888	9.19965522648181	14	0.0576714349941135	1.477927645227627	-0.3227757905597938
Si	5.212108262068169	5.17975120992526	10.460583938342214	14	-0.5199150338716158	-0.2798187913128878	-0.5754007722330713
Si	6.659442748383594	6.476868466153801	11.607562533478019	14	0.3384839585132385	1.1982680053340566	0.7901492587720556
Si	8.127863815383595	7.866876005313991	10.238282163646197	14	-0.3792418913798219	-1.723405468331957	-0.044666270063740486
Si	9.43611613693162	9.157263074937482	11.563212843802912	14	-0.31632642997473437	1.0112113515351953	-0.017293511493847995
Si	8.16663844983569	5.131468055500604	12.801333143830403	14	-1.0273818042252025	-1.3675189834592962	-0.5053723479597941
Si	9.355240223381614	6.387456950814083	14.198015704131668	14	-0.3552938450963666	0.45926060248506645	1.5192249959903776
Si	5.085891352172219	7.875093987765662	13.137900982908334	14	1.2624209397297312	-1.3450015001759714	-0.44489815105618724
Si	6.4381356237198695	9.117966876098706	14.476367261907843	14	0.5899236606339278	0.3548256468175677	0.11468672391052522
Si	5.61763961783878	10.682359133609369	0.03570542863816786	14	-1.0963853859178685	0.3976939429309286	0.37180805456767774
Si	6.943389421551498	12.10215100827432	1.3292051677744767	14	-0.6532026763312843	-0.23078292775755557	0.2013229458887669
Si	8.34826154573208	13.22801961919538	-0.15281000689374793	14	-0.06245471933171699	-0.13885459969885314	-0.24318156894290566
Si	9.687237687353186	14.596703199007825	1.1482457291265218	14	-1.0399385683877418	0.09434542417017368	0.7478257798760339
Si	8.161932668590481	10.446712331673385	2.512768495610609	14	-0.26447443476224397	0.002836443389187361	-0.8124474267715718
Si	9.498167253820057	11.706047931801395	3.7732726005664716	14	0.27049133543245457	1.6446813087554069	0.06878246663513342
Si	5.2587180640855555	13.428280283511965	2.686267223176016	14	0.2999505459696472	-0.3991563876370288	-0.853446529317185
Si	6.751640955494454	14.62108466240441	3.935970598957703	14	-0.3662585808446701	1.655825507655057	-0.1246039913514004
Si	5.251136991990697	10.722521263064493	5.486227124244744	14	-0.09033218587595455	-0.7440832789720264	-0.7505920320899813
Si	6.687644002240323	12.042747833656723	6.682837920151521	14	-0.7260397760562911	0.38027881815543757	0.17018300380379345
Si	8.033241671219251	13.155268073976359	5.056411262559685	14	0.5112771484380463	-0.8335811411715928	0.7862553197646912
Si	9.282985167338376	14.48702255485881	6.465955734370948	14	0.20708453580068675	1.2714349778716385	-0.21944743862208674
Si	7.970510180275111	10.562360876016148	7.917188580140665	14	0.35159608142492965	-0.6604981876772045	-0.6117052935746262
Si	9.314260642051213	11.910755266850577	9.221387075926831	14	0.8343990097739319	-0.46045153846935905	-0.44947548985764685
Si	4.989859981155401	13.361998142704653	8.037994259524805	14	1.534597120478479	0.29280981516399995	-1.139867919092213
Si	6.526564190792382	14.650056561076074	9.193088864587962	14	-0.2988601402033724	-0.18780021745744807	1.3564388050821181
Si	5.141591753980531	10.639254846075536	10.419360291625736	14	-0.41605446313263805	-0.901021747940141	0.19450206058494607
Si	6.443941370883143	11.895496165178722	11.753888090833518	14	0.3786307396452227	0.3753960320419444	1.1344313168927598
Si	7.930702447134014	13.213586327802432	10.582364207589926	14	-0.6693739003528876	0.15380249180913003	-1.0872353363045257
Si	9.419972716155423	14.434227534153223	11.729814216690613	14	-0.7265244294091391	1.1869173466771987	0.9140742212084048
Si	7.731713931850326	10.364584329259202	13.01285090615951	14	1.339506790996283	0.4076991421737528	-0.48272888051578206
Si	9.337933312819747	11.597086110364792	14.29363417000903	14	-0.33064054462359477	1.2481345930183285	-0.44227999450868044
Si	5.1472554082820485	13.318743403905431	13.234993871186505	14	0.44048870543213337	0.2687028745717595	-0.3484616469291371
Si	6.540340511659799	14.69063828239356	14.477428779169195	14	0.17085946161352442	-0.8131066581756576	0.418936415085992
Si	11.208786439523355	-0.33489114330921127	-0.5758522182748664	14	0.36451665699026975	-1.6365031369530798	-1.2850101568514882
Si	12.499120015363596	0.8356681801551663	0.7372362756150381	14	1.2246177210970621	2.0201652725993005	0.8966912352494155
Si	14.169936482967975	2.018281993338624	-0.6848775635790788	14	-0.22666350281361436	-0.08072499373668923	1.265679301501955
Si	15.322374787356658	3.504041732834298	0.8804508351384465	14	-0.5874224893784877	-0.3437066447500553	-0.9956872747226732
Si	13.792295448438956	-0.666917025853133	1.9903281482294222	14	1.2250648363122356	1.378347964846696	-0.41096933103044914
Si	15.025470916877342	0.7209674787843509	3.5165910400484344	14	0.06000625573533998	0.40805035516048505	-0.4556353439836576
Si	11.057236879897417	2.451309153699366	2.1907342487692167	14	-0.43564088635099407	-1.6633141090105201	-1.0978064358283146
Si	12.45631663036054	3.577767867916892	3.4699227292056167	14	-0.4085401507239733	1.0156693910498	1.3924198813743982
Si	11.041511379302856	-0.39319435200874686	4.737138632278538	14	-0.5748883509427659	-1.1369715689490663	-0.7319178370392138
Si	12.326809852794758	0.7899293237963054	6.17408696623997	14	-0.9111107652164022	0.803059292805583	0.25355315069385104
Si	13.604579076294325	2.1990542037452068	4.911107102128102	14	0.6176088085002183	-1.0696417768198165	-1.2091718058862726
Si	15.019516390129407	3.4888662151987684	6.058471855511738	14	0.22779478915447948	1.4780379456458612	0.23889219393730265
Si	13.69765491578662	-0.6876358367778698	7.242361161089545	14	1.3143102159693638	0.5413243707619568	-0.20585400479446386
Si	14.967931666269836	0.7825722569188029	8.570752220350196	14	0.6173498981944793	-0.06399506852901769	0.5222351993125173
Si	10.705662362937336	2.215282880238457	7.416961526253742	14	1.8064848232103057	-0.5786254525256012	-0.4185276093400885
Si	12.118473298888258	3.5510343497380643	8.65951345188729	14	0.004118910722877222	0.3795928472560221	0.49859208612003164
Si	11.002738416531487	-0.5874219205832498	9.906326491692791	14	0.7507655816990912	0.3510738899344076	0.0025929597153693377
Si	12.422276195726006	0.8218316787815948	11.246021456026307	14	-1.18915575096892	-0.37263132249118913	1.0710944513257001
Si	13.568072912588146	2.2303430519038554	9.932836004654263	14	0.43559126401831527	-0.17624644148029867	-0.9859163031745145
Si	14.871799994409425	3.6020624039156974	11.220431367464432	14	1.1990395940406329	-0.8084138767453235	-0.032189467276657904
Si	13.857959067377449	-0.5528666082849415	12.562167453965053	14	-0.028610745781543795	0.41855074928796987	0.15930748541009906
Si	15.51194505342702	0.39249057442287355	14.062915482854885	14	-3.1254448831511574	1.412328978310433	-2.045475233370838
Si	10.894764558404269	2.1663945773907947	12.742974769666892	14	0.612221571522912	-0.846604560949739	-1.4083486501643117
Si	12.238441466228402	3.4090601773137488	14.003298333104288	14	0.7435847416504496	1.210034668831714	1.0040253692759133
Si	11.045665505908307	4.977930867490811	-0.35067348104847545	14	0.7335139792219617	-0.625398743399203	-1.108542857424189
Si	12.517125688469159	6.297391808310287	0.7751600245773245	14	-0.47861356934035304	0.9572039987328246	0.15850967142925715
Si	14.065548379999184	7.524146351078033	-0.5765175472040294	14	-0.7838464511902444	-0.02560126700431047	-0.30507501598323433
Si	15.195574460887148	8.927537366134903	0.9124635210516875	14	-0.3360920592339047	0.6259021658208879	-0.6452433055917018
Si	13.708977209347475	4.920112446201973	2.090371552989935	14	0.34974360004176297	-1.7063675247069316	-0.9356008005013444
Si	15.10949126187397	6.131365493592514	3.229847645025028	14	0.802504191166963	1.3140387072475561	1.3616851454878802
Si	11.059321465763412	7.549815008634055	2.358955480280937	14	-0.2896368140884052	-0.051313862868983345	-1.0012287780191882
Si	12.26556615769724	9.01940792382336	3.547229604404459	14	0.7008120906549983	0.701693722669277	0.9251626271226073
Si	10.92516240073567	4.870456841900829	4.989142830123716	14	0.2818558780580411	0.3420426253868554	-1.0003399469100132
Si	12.221298380377734	6.340074832301032	6.208466752061992	14	0.19314246009165176	0.29770391414090186	-0.04915439151059097
Si	13.673010998515968	7.473748520534305	4.658556264685345	14	-0.29682922411098744	-0.028132777302528267	0.243569548735716
Si	15.05143713360269	8.801788526842385	5.938441835984712	14	-1.1825531525067794	0.638248870678771	0.9105613200094865
Si	13.576824161191583	4.895737669528293	7.448939106871725	14	0.2468631346508257	-0.18710473346834802	-0.44645984042764514
Si	14.944591659965884	6.217717833202664	8.759463242527117	14	-0.11977314156537416	0.6639013026789524	-0.0807882429275649
Si	10.798295207037098	7.749679484618451	7.624010886000806	14	-0.3289852670184834	-0.6459133356381325	-1.9156624397513495
Si	12.271014165185033	8.999916126551904	8.683692641915966	14	0.0187816672531497	0.130483852108047	2.037843678559575
Si	10.764209637022947	4.978953936095454	10.046899795668265	14	0.562041823210646	-0.17797525269756623	-0.20183948094758464
Si	12.015691681097673	6.2956499169932325	11.470889260637561	14	0.9118070205370983	0.1702830198007472	0.006733981943999834
Si	13.516085313673479	7.666586922425054	10.190898373452422	14	0.019404131851157552	-0.5412498087076725	-0.26841542499696697
Si	14.855282117150486	9.013155837906101	11.54591261996395	14	-0.23056978312651535	-0.4522453416190424	0.3295177429302861
Si	13.579447028251524	4.847098447108885	12.638989541753197	14	-1.1828783973297783	0.36376229468933835	0.058507815554757675
Si	15.174529672220734	5.980071701117738	13.854105843302772	14	-1.503885010318778	1.5895557822493043	-0.02569099857998364
Si	10.5875464178422	7.64865480327146	12.829241853559989	14	1.2478921377866385	0.2117698610255926	-0.6694546330599404
Si	12.10164950405636	8.914794143956488	14.009649048184414	14	0.6699115184753306	0.5236811889445687	1.5179160462718901
Si	11.079259601788856	10.355520476359901	-0.15462879552422346	14	-0.19706056748902542	-1.1325330698348948	-1.0276466280731777
Si	12.34228961632252	11.763745992077924	1.0539378609387675	14	0.7203897721152658	0.7504997294089879	-0.03330635542773023
Si	13.720279442739614	13.152421201699061	-0.3622264665495934	14	1.029993533009409	-0.4336050851585008	1.3268024453883671
Si	15.284726865714251	14.6209643013921	1.0462849065726676	14	-2.1604087833920977	0.2069469816660588	-0.9458330283439379
Si	13.754187814596749	10.332528179647069	2.2536780431656274	14	-0.03814826096663309	-0.02072876531209784	-0.22831878041872566
Si	15.073586903229343	11.84901341089655	3.4355429433835956	14	-0.022799533536945103	-1.0161103356122054	1.1847113383125116
Si	10.932170086341326	13.118012997304687	2.417086505865639	14	-0.5638737357512515	-0.9846158381035834	0.014119224865593175
Si	12.22451302241487	14.388140968203242	3.7512064149761435	14	-0.8459525286405495	0.8100059051595592	1.2994967926673306
Si	10.872283795993757	10.41680763515631	5.026655345627273	14	0.6311330795947292	-0.6816879521732048	-0.26659328265657806
Si	12.185669849052987	11.800996053707415	6.29338478960877	14	-0.012403783395990377	-0.3631879097608173	0.9847757608544967
Si	13.605169179590796	13.066665652108286	4.989544033498085	14	0.6849396290715961	-0.6723553540821313	-0.277739795551016
Si	14.980148309019391	14.23627546091999	6.422400093040948	14	-0.5180052168398098	-0.0960940328984064	0.6374202034340873
Si	13.652407533561362	10.267016683654694	7.488499431265294	14	0.5136826745755768	0.5027853017866613	-1.7572844089144843
Si	14.929153688456287	11.551882191838423	8.903774424607137	14	0.01914033644531036	1.3331517899764729	-0.1687233873135454
Si	10.682275549573042	13.185393432349336	7.728959002012988	14	0.18854686644241908	-1.1711423299854302	-0.18716541155390354
Si	12.199054996630393	14.29862413697775	9.016139788002976	14	-1.4080696852370758	0.8911774998903581	0.3524021229427961
Si	10.97245759185094	10.42612725520677	10.10315018043561	14	-1.1327194749706053	-0.2569341541898457	0.6521963457089783
Si	12.174930972065694	11.648759433302871	11.634585252422537	14	-0.4191732138859776	1.073926780946375	-1.207634027794292
Si	13.500211033494255	13.049219992046114	10.307753871279747	14	0.795610543582582	-1.780288345324381	-0.2236655940103217
Si	14.813408186631385	14.318415165099259	11.637748072357152	14	-0.28229836528363855	1.0239768894497305	-0.6180438395203873
Si	13.513188290974384	10.50302456862761	12.940191303380448	14	0.5932573557920318	-2.0329472655878846	0.08592454002562469
Si	14.913787599217931	11.767218072946946	14.197128041665874	14	-0.088707761534685	0.13057975433648855	0.49500642264055317
Si	10.8420146730783	13.070070865748248	12.880199697147107	14	-0.9379371639057631	-0.8152836130502271	1.2036390443478457
H	14.509036918346613	13.596117028456582	1.9016839343431855	1	-0.5804239406970446	-0.48298393416354074	0.28100947018664835
H	0.3008791272470284	0.3405798728216269	0.7224887082455023	1	1.3067917897921868	0.52221128803304	3.9036768116537943
H	1.4000443102423357	14.245200564318985	14.076950914234914	1	0.4177591059598962	-0.3411805337730098	0.0013040646183791057
H	16.45058375129487	-0.4792290722808545	14.94507644737658	1	-0.8830024134144152	-0.6535901419030306	-3.48597915511105
