225
config_type=interstitial dft_energy=-23352.53907116861 dft_virial="-8.372946897233755 -6.559414260061562 3.2029652144266128 -6.559414260061561 -11.826333099421337 -7.8074801506767235 3.2029652144266123 -7.8074801506767235 -10.485369100443235" pbc="T T T" Lattice="16.3852778749 0.0 0.0 0.0 16.3852778749 0.0 0.0 0.0 16.3852778749" Properties=species:S:1:pos:R:3:Z:I:1:dft_force:R:3
Si	-1.3019086388280545	-1.5018581847354593	-1.1919306537317258	14	0.7052174225105399	0.7174355721024156	-0.13653314870529143
Si	0.1039482028383656	0.1790747018947821	0.20366900398500704	14	-0.14129586420033372	-1.2520552715210225	-1.1910131174521947
Si	1.5431490849802072	1.381131457353196	1.4971719952632379	14	0.6502065673017157	0.08799607958206801	0.9844353465101091
Si	2.5838763944823557	2.8523327871847175	0.0399473074590062	14	0.30240080933974833	0.09092662542597278	-0.04485241808891921
Si	4.05879718239148	4.238789459847256	1.1772166742000654	14	-0.24666181710425814	-0.40985809931108114	1.364441627501611
Si	2.944975148289402	-0.14412490418762042	2.7965736865764326	14	-1.1124468237423017	1.3449356798797758	0.4316338187095433
Si	4.044640302307566	1.5554380433863821	4.023929311073692	14	-0.03505213594011078	-0.4252299666886505	0.6329356815346849
Si	0.0862521027334736	2.694477020137931	2.867915186443747	14	-0.45406825529102746	-0.08452123074188787	-0.7848126725695561
Si	1.3079384210860179	4.172281616953036	4.110984292423035	14	0.9590508236842872	0.48796673627398773	0.4159004539239612
Si	0.029067482950072603	-0.0916100885985659	5.546088855096152	14	0.9746085819765034	0.5325679573731285	0.5348094469912337
Si	1.3205386997718158	1.464548907014312	6.94173766864651	14	-0.4935581190137137	-1.2894753954609894	0.2707307053377603
Si	2.5831226717001106	2.748384584346352	5.5638013404789195	14	0.5873396997871789	0.5457420439230353	-1.5342667334448399
Si	4.057715754051736	4.152635668781032	6.687274303249313	14	0.3237767218609275	-0.7139067300505124	-0.024765143554198316
Si	2.788299121249608	0.0424542549738659	8.231340963790513	14	-0.144425927817082	0.10562357765700324	0.10382894614353988
Si	4.090715703691784	1.3998598299642067	9.742669839137665	14	0.02601058697127804	-0.2620395980240638	-1.6696889075412953
Si	-0.22038198741740503	2.7519565749230797	8.193769521623368	14	0.20918590017884378	-0.18064894511998822	-0.15531687284269724
Si	1.2855725167867793	3.874544732688229	9.570542495061842	14	0.45441098363020316	1.5702449815212678	-1.0809402420386751
Si	0.0692769548550772	-0.079796303250763	11.0357140426354	14	0.03602169975633862	0.4287937757729078	0.6855991175862142
Si	1.412607576150879	1.3931254807576228	12.412896648020745	14	-0.36737341211148633	0.4342000389295831	-1.0106613921072156
Si	2.767866679739608	2.813630760844204	10.915069241642511	14	-0.3055498991358657	-0.13638916680736313	1.7340583290049267
Si	4.103250441266083	4.320568381720881	12.27765256444132	14	0.025186290605638567	-0.6965795370769705	-0.0868606794726906
Si	2.7358170762163034	0.1344248196856796	13.764190514363747	14	0.6819013539147771	-1.1276711096744945	-0.4646771500630224
Si	3.991371763936266	1.4783944668186024	15.204292586788709	14	1.046734513969957	0.0403465560153597	-1.236560762419682
Si	-0.0839417785531127	2.7404049540212756	13.666861963786841	14	-0.010803784555262229	-0.4199098355602001	-0.2844334111414895
Si	1.199926669334677	4.1550279193507675	15.056448224523486	14	0.07134123064974479	0.024725291421736018	-0.27888959385018625
Si	-0.0885132710802098	5.598292350405584	-0.028756162670449503	14	-0.0258552922099411	-0.5941698410701524	0.5437373531049157
Si	1.3187363192055768	6.890058502229076	1.3256836770245346	14	0.44281221330995113	-0.3174407470204865	0.6527259934049288
Si	2.6100436832485707	8.27633493683499	-0.0390297318980118	14	0.8153599748782355	0.12591962594372016	0.1210710355309849
Si	4.09966206541148	9.650813971370976	1.307381321638271	14	0.5392266059312479	-0.8535015509710362	-0.26062549009798236
Si	2.8492031991106113	5.555182684316722	2.7345717950978115	14	-1.009821926220187	-0.18304367261517412	-0.14553921642070614
Si	4.348570821609086	6.858352989541144	4.018128922705977	14	-1.4794998761308977	0.14862865657339605	0.46772673808325
Si	-0.0600520434115085	8.211121530892889	2.7138608038639376	14	0.032781849942420026	-0.03885762892446195	0.4505833791400987
Si	1.4745930823516258	9.613832399207327	4.002038579832826	14	-0.5702320792079777	-0.6448139310032371	0.2648400459387691
Si	-0.04509228471172481	5.46779999740988	5.564899154096538	14	-0.8060970537413379	-0.20229919457882714	-1.2635545400653845
Si	1.285769140121278	6.697056314140628	6.898562461446149	14	1.1635567979593975	1.3868660367723464	-0.7368787847544395
Si	2.7696854455837214	8.120429017855317	5.393705770859582	14	-0.2333892572205897	0.052280084248295	0.09561015087715452
Si	4.048146751772794	9.602215237194022	6.76648073649658	14	-0.5312170986379225	-0.4158778281971439	0.7257739237661879
Si	2.8106814108267213	5.438650588070433	8.04546637157765	14	-1.0740882463604806	-0.4476952565339764	1.8040314745138204
Si	4.0808681516889695	6.776393829610894	9.512112594159948	14	-0.09489358382442925	0.7144919136213782	-0.34854803606789414
Si	0.0287725479483244	8.094622205202349	8.23784591910685	14	-0.7899096317562178	0.492901458714948	-0.5671356970709233
Si	1.4051686599956743	9.427499019213965	9.527678608141104	14	-0.18940510139828448	0.3750985551564032	0.7869649448330521
Si	0.016499974820024303	5.231999463512195	11.021737400608108	14	0.6745842452841677	0.3689772676101947	0.028930848393902232
Si	1.2090041132773717	6.889599714448578	12.298478252620319	14	-0.11362665718702815	-0.6687151831698658	0.20201148789350254
Si	2.686284381200481	8.084610800420785	10.950395900740794	14	0.6524922799313273	0.42222151635354516	-0.4910914005695637
Si	4.045049934254439	9.568346867826605	12.249387960107118	14	-0.2931736265668009	-0.2750146810221911	0.04966989812728066
Si	2.541848156733237	5.490051204763995	13.670384798529945	14	0.8685306900094298	0.37216955197569057	-0.08776776542963885
Si	4.065678999098937	6.988665104480224	14.925480698469412	14	-0.30788831942454037	-0.684679690323729	0.6038294837579486
Si	-0.20230902592139033	8.265012709823434	13.601156999508493	14	0.7565366847006956	-0.1674789723385937	0.5311631054261995
Si	1.1581933665873065	9.551896048840206	15.053761038952004	14	-0.015764989381019962	0.531482950928026	-0.1680032207133719
Si	-0.1234139129537468	11.009333745256809	0.11818700931165371	14	0.6677420198061896	-0.4081462573889265	-0.39399977880693987
Si	1.4459516166263005	12.353041227943734	1.3812789248540702	14	-0.4495109711110649	-0.4316263625041149	-0.13786832369804433
Si	2.755250015775935	13.668467721018583	0.007684695323328101	14	0.251468498500275	0.2607293627529163	-0.2225849584442635
Si	4.156764758805506	14.997297371395097	1.3860961965492908	14	1.347078696164119	-0.9046912294530564	-0.7366988073820291
Si	2.845614823256008	11.03622198624952	2.6973116732102884	14	0.1427310551900404	-0.23369727563794343	0.5352496202220429
Si	4.241329177917866	12.311619245475988	4.1923535823497895	14	-0.1385257553284062	-0.275743075159389	-0.7589329548590736
Si	0.1076676609159679	13.599223536719254	2.7967375393551817	14	0.33789054740534835	0.7160281490501665	-0.14110046019600248
Si	1.5103457586746574	14.986450317441914	4.210066067732556	14	-0.7161502765528737	0.14633317374356783	-0.5964087595829373
Si	-0.029919517399567403	10.828718827241788	5.419774747958548	14	0.2753329838608254	0.47495000136967397	0.020515363570525552
Si	1.2212930716835466	12.240081122274175	6.87609824547966	14	0.8075805815110633	-0.2760606066664273	-0.6301853701737227
Si	2.736259478718926	13.521606475425854	5.508566568762632	14	-0.00542091845700021	0.039882214394540955	0.6208170337186991
Si	4.075100533877005	14.949796450835763	6.832251241886428	14	-0.3509823585850103	0.6705254984257819	0.23882380253578672
Si	2.627592315852589	10.961472348584227	8.284724199106938	14	0.6390700817180263	-0.8137018690572719	-0.990545064082377
Si	4.061484367962963	12.210030522651609	9.60604939221675	14	-0.11422263940023848	-0.055470054619002715	0.23945500889188304
Si	0.13758717831553532	13.636172338327155	8.32375393100495	14	-1.4658611908496402	0.26580601020754874	-0.3183725155885082
Si	1.4415112063222024	15.045289850290681	9.594792706316694	14	0.6146396960765111	-0.2460308678586938	0.32336431656757575
Si	0.14376442807437262	10.786723360048418	11.063683711967853	14	-0.8119979975616098	-0.5749397730491688	-0.7394550322852278
Si	1.5067409975421795	12.193333924497086	12.243980818408401	14	-0.08759627270478498	-0.22207536536981012	0.8720862715566625
Si	2.8256411695265053	13.59676574503802	10.999535349087619	14	-0.8919046084748959	0.3484331076600835	-1.162405199886503
Si	4.104331869605827	15.003310768375185	12.18987663086548	14	0.38139596341704196	2.102558656578234	0.9477371889440394
Si	2.674732760298676	10.812759566591636	13.735368810581798	14	0.3693019982121294	0.37631057420432107	0.051395109797100026
Si	4.0905846214687855	12.303279139037665	14.977602267389468	14	0.32547185159850106	0.0638112344986271	-0.4513153728247449
Si	0.09062697192607191	13.471401984017161	13.635205606932535	14	0.8616660959151663	-0.03953871472376917	0.055106243216201764
Si	1.4064630969477914	14.992398173310503	14.97470207320561	14	0.05293057389429246	-0.15929180166764617	-0.013678537413719796
Si	5.495392805351212	-0.0026544150157338004	-0.10406289978348991	14	-0.9833670522495876	-0.4637299548630799	0.3937812348547272
Si	6.727516545710067	1.3730043595272456	1.2233740019736588	14	0.6330819774274015	-0.33812323243682174	1.4675702045559424
Si	8.065046778638155	2.7446323557129997	-0.0386364852290142	14	1.0031825609519687	0.37233615960043615	0.040062448877483336
Si	9.571263447288338	4.0297788552750315	1.356209449705473	14	0.03755536407980695	0.07878766587795766	-0.6537703763859729
Si	8.184151363510802	-0.08521983022735491	2.6752243186349234	14	-0.18019000282034178	0.7866579548578264	-0.3970267411003502
Si	9.516290840018048	1.361288885846692	4.033907945299506	14	-0.4476664601543907	-0.10106937880342493	0.053728387875134405
Si	5.425968382995261	2.8639991050316462	2.581713537802869	14	-0.02865162635613415	-0.21115896640152537	-0.09374044308834284
Si	6.874639955748794	4.126779700294439	3.965974583230171	14	-0.28700863023014983	0.0923142509672567	0.7612029837462324
Si	5.305471049503246	0.07422530877329701	5.443959418101901	14	0.33691686982060826	-0.3312259853049925	-0.1729307440594357
Si	6.618325053951733	1.3300585462171326	6.952781345934193	14	0.6816069623556201	-0.1713425723031802	-1.1025838066236817
Si	7.997457507404192	2.619694611916887	5.440665977249046	14	0.3164544710196777	-0.07235038948790291	-0.3816384186487319
Si	9.495809242674422	3.991175140601767	6.628860787625294	14	-0.3929140010302413	-0.175071960570055	0.8207171299232959
Si	8.092148028243239	-0.0063083319818365005	8.181988506831317	14	0.59704459392861	-0.15859374657322597	-0.034852618167267285
Si	9.577899484827672	1.3455098632531635	9.498250649077784	14	-0.5494308087258516	-0.21495854584364021	0.14018797491788193
Si	5.231688143232572	2.704799745199118	8.114563088376102	14	0.5792733710662783	0.7948700652503794	1.0826304866761405
Si	6.839427993595634	4.0192758921572205	9.430874386456194	14	-0.11428640281217815	0.26877897928923594	0.33860017247370916
Si	5.599324622911703	0.1532351186860648	10.91449575691689	14	-0.6503965719848747	-1.3209590943272667	0.5721647790771329
Si	6.772854609589916	1.4496874599817775	12.41288026274287	14	0.9049244287055938	0.03562754931075991	-0.4511886173324616
Si	8.219412481497589	2.688594705380842	10.929684909506923	14	-0.13834629217705985	0.36483007472879586	-0.06683408302352521
Si	9.694923139410207	4.0577649098853605	12.2524028512361	14	-0.5786074547883601	0.21628883573628482	0.1354286018597558
Si	8.19437577690474	0.0835976877177398	13.681199081927378	14	0.022827301474402706	-1.157628086201668	-0.23939201681153943
Si	9.543195466288633	1.3584050769407099	15.026610633513293	14	-0.19195820898119154	0.7144595176943442	0.4558004089452111
Si	5.49147672393911	2.865113303927139	13.69279985866281	14	-1.3432271803945373	0.40738880976161096	0.543239330004403
Si	6.815030314839909	4.265431921671844	15.070883654331274	14	-0.16655645974972458	0.2319257840723614	-0.08253710876632961
Si	5.427885460506624	5.714005182758127	0.14651715475735583	14	0.4755830074994945	-0.14516614903875263	-1.9112010577998289
Si	7.04014764756316	6.7998411622498764	1.4248146081676796	14	-0.3129953059219505	0.5235724311895265	-0.36505761754962895
Si	8.21741347759685	8.237550984105102	-0.037030727997274	14	-0.2640304048734544	0.04062423538993569	-0.12993877778017562
Si	9.580947146512404	9.612243027253463	1.2490661176815019	14	0.6875410734345219	-0.37348390101535023	0.6555210419984618
Si	8.39601300643326	5.493492113117724	2.776976894238052	14	-0.14376772485512407	-0.27216178255895473	0.10738015681172841
Si	9.700887380556672	6.966741602683607	4.101235052087471	14	-0.187746738466789	-1.0189238961640434	-0.4125253639702028
Si	5.624705418339923	8.185281947684171	2.653268046282557	14	-0.16703648511299624	1.4203881079364373	-0.020710510464324792
Si	6.9210430626905115	9.657335311965188	4.092731092870397	14	-0.3127734195328218	-0.8751998800993619	0.4644850884956073
Si	5.502733409839167	5.488707611978253	5.461426124316545	14	0.7161585040898981	-0.5238704222961316	-0.7088254546063038
Si	6.807099840348457	6.871756146842812	6.797088435566893	14	1.1984590384593434	-0.2656219190666261	-0.18008407328115167
Si	8.344497692794574	8.196587789417853	5.403848257864146	14	-1.574694536388316	0.9231484232148034	1.0792559109434463
Si	9.498611125191031	9.716617247316576	6.853781497014047	14	-0.24512943833344988	-0.6568060804374718	0.8946184101403122
Si	8.28680512939705	5.416956480164065	8.08388984819429	14	-1.294673913307797	-0.5183970532906004	-0.5382598703308722
Si	9.660268276704794	6.685045905458327	9.355813428511276	14	0.8663665906614612	0.9169980821784771	0.8451531719965154
Si	5.459394349860057	8.234896569089369	8.128916591794516	14	-0.6119418352640799	0.44697894659178306	0.659763108666174
Si	6.935511263054048	9.512178135271448	9.492319178487069	14	-0.16027884900005102	-0.1846768387145322	0.7142358315314914
Si	5.549136516780885	5.577777982506209	10.802125521250826	14	0.11627258167199256	-1.1950253273042857	0.2284491354584572
Si	6.84175470305387	6.897775968108154	12.212603011277967	14	1.2670874958858	-0.8670335353815075	-0.1533924005105664
Si	8.418493607677624	8.02724594258076	10.842941248437201	14	-0.7770926717352794	1.2683630212351256	0.11815694476112906
Si	9.634445078773952	9.577768402604672	12.305966324609146	14	-0.7628464342668709	-0.08190230286278503	-0.5424281462758963
Si	8.295833417506122	5.504257240681532	13.652492075090555	14	-0.45444415088883305	0.005096959186661552	-0.46191012651747904
Si	9.613930710874577	6.912817653197311	15.033361367997752	14	-0.3824056364762641	0.06412439512662114	-0.8994361472892057
Si	5.467406750740882	8.19029584271389	13.475088671539012	14	-0.006538320829136564	0.8435374894133344	0.9802914960656264
Si	6.86880679682533	9.585289245149252	14.896036354128215	14	-0.030841950978368296	-0.5324735978078791	-0.08023699794692514
Si	5.540714483953185	10.914905388863762	-0.1350802308006756	14	-0.5358998527575084	0.2861930756225988	0.7807829792012881
Si	6.912735726807937	12.235542400302826	1.3410039118375658	14	-0.21893733132656937	-1.7231298458416369	0.12720569282485822
Si	8.120560100078317	13.53369881049753	-0.0021137008458621	14	1.08529877977739	0.5324340027859488	-0.937520901954431
Si	9.500790367148394	14.84358707965066	1.3256836770245346	14	0.06227705595409475	0.79612964974672	0.3363494268764516
Si	8.325277761847316	10.901764396008092	2.770291700865093	14	-0.3175993842187397	0.33244288945301853	-1.1193772381327611
Si	9.49687428573629	12.377242283364962	4.071463002188778	14	0.18770200123421843	0.22107289140548436	0.8960458878140584
Si	5.679383090608464	13.52473606349996	2.707388619103352	14	-1.6657425179854	1.4268865766331114	0.5765405432214931
Si	6.782079521033484	15.099623431723849	4.115686867173133	14	-0.6768121080440761	0.4805796935786703	-0.614651266050452
Si	5.517283536592078	10.921295647234972	5.59062404036013	14	0.09751893946683246	0.023490389536468894	-0.6171244122579024
Si	6.599645837174347	12.462544039981692	6.988648719202349	14	1.1381329372221771	-1.081459091092281	-0.7361264793377641
Si	7.888020236477734	13.635107295265286	5.419266804344426	14	1.6665999816096695	-0.33725651283339986	0.7569475473308552
Si	9.399381882380636	14.93380441962986	6.788994108296692	14	0.2553027878642118	0.10742489404429897	0.11174975030332004
Si	8.091164911570745	11.17498890457205	8.308532007859169	14	0.7279009991975465	-0.7520197668742594	-0.6684704139433876
Si	9.632314992650215	12.344307874836414	9.686910738529383	14	0.3616411328002162	-0.00730656709879681	-1.1333383400211647
Si	5.327623945190111	13.666567028785094	8.379070629110613	14	-0.038226422568365594	1.2442463104426686	-0.013423997987025135
Si	6.859352491491513	15.014469142607993	9.628497222905363	14	0.13076795924592338	-0.11936844958798284	0.11774839612575755
Si	5.447662490901629	10.8513632812649	10.890032537049663	14	0.40809766349837584	-0.4542441188949255	-0.44276541919312445
Si	6.8058873297857145	12.343849087055915	12.158285815122674	14	0.19598635968626754	-0.8324110311403934	0.8381517950992201
Si	8.298684455856355	13.66217577431462	11.028111273701446	14	-0.31858823132486863	0.6328906871915824	-0.40292279982051377
Si	9.655893407512195	15.051696493939765	12.32687393917752	14	-0.9495127942781337	0.817401175391901	-0.11444118335245106
Si	8.239058429669592	11.062913603907734	13.673022828267806	14	-1.149538103311822	-1.5585744773625838	-1.974214221207082
Si	9.549258019102346	12.302902277646542	14.902066136386178	14	1.0515944172461011	1.2325220701827933	1.3382875728534687
Si	5.478794518863938	13.715624550742545	13.487197391888563	14	-0.1208280660782309	-0.5410091532497066	1.2718432693964778
Si	6.860384763997631	14.942357534680559	15.015403103446861	14	-0.2061759071805464	0.570324638999503	-0.7732776656612437
Si	10.792212428136512	-0.0725540104300572	0.004587877804972	14	0.35774822223498	0.5853866881859945	1.188659270531599
Si	12.470638367251892	1.1353031333960713	1.4225370545430684	14	-1.3352811794026196	0.4376972563860485	-0.18288272142213288
Si	13.566829842360576	2.709698943283713	0.079632450472014	14	0.17199974682301006	0.5627308794364456	0.6283855964496189
Si	15.095199406697626	4.037152230318736	1.3706448795132602	14	0.030425946137568334	-0.11357189264370901	0.0999087818619101
Si	13.888784167324488	-0.024922007647722903	2.9001286427458006	14	-0.8976474293179786	-0.11375469823197153	-0.42357700307832735
Si	15.120891522405469	1.3708742734035086	4.317848425593648	14	0.1781192345954945	0.07010658587500967	-0.9353622019276348
Si	10.984182343718839	2.653628522395805	2.645665277348604	14	0.002189296180106089	-0.4910350933630524	-0.49635548160203485
Si	12.226841817751255	4.061680991297462	3.9565202778963533	14	-0.26772354055531516	0.38899049431169536	0.9570543604031921
Si	10.76873232494178	-0.0984591347502741	5.381515124120657	14	0.3205780097321312	0.5518399344108305	0.7226040080169772
Si	12.210063293207357	1.3204076175488166	6.792893804430919	14	0.9758591676042232	-0.9881500794766589	-0.49697846042110666
Si	13.574334299627282	2.7266249353284846	5.342632859723519	14	-0.3729678801775965	0.19963990034619797	1.2397144802053754
Si	14.821122863684172	4.198465290997127	6.789682289967438	14	0.0541310229682696	-0.7996510355931946	0.35171075272220825
Si	13.791537543136956	0.015598784536904803	8.321705771270588	14	-0.8208819377743175	0.5764017035342051	-1.4891631183661422
Si	15.083123456903824	1.2821316084330503	9.71900949788631	14	0.20461241803536437	0.40373501199114853	-0.301457470797786
Si	10.881184486997217	2.6619030877226293	8.0619499611198	14	-0.8956751344268932	0.11900026730613764	-0.30721057606214935
Si	12.301296520414802	3.8260279249006497	9.38982926537957	14	-0.9849223138577451	1.1310572553811296	1.034249226535318
Si	10.933404367584524	-0.0422248610836173	10.837304712848235	14	0.4356169750715167	-0.3106998230921223	0.02884728747099742
Si	12.254582093193461	1.2204738077898014	12.319893810802812	14	0.3713370280730266	0.5215142613807479	-0.22489895323239675
Si	13.577513043535012	2.6454850392919798	10.8350435445015	14	0.05776785144361905	-1.1288430194794181	1.1945854111840084
Si	14.899034859979324	3.9418554541983184	12.206229138184632	14	-0.31286546510328306	0.885082951839479	1.1355281504223351
Si	13.728552534985841	-0.12184092627775642	13.75911107822253	14	-0.7589447819435463	1.1201529406078496	-1.08401245578572
Si	14.947404200266027	1.345116616584166	15.11815518100036	14	0.7036860721818597	0.4216311905720392	-0.34142247478363574
Si	10.972942043096658	2.6568400368592853	13.705154358180485	14	0.27307349650547924	0.4017704304160234	-0.21476597005516115
Si	12.35222196404999	4.116391434121753	15.052073355330887	14	-0.5351622026411579	-0.43780832813587894	-0.622778015746376
Si	10.852919882663015	5.4348655888813315	-0.1452882589167383	14	0.37674509100342607	-0.5392926833379758	1.213347280926193
Si	12.33105218503562	6.740165980229491	1.1559813540741952	14	-0.8242536852911596	-0.2788458850597437	1.9799755540084696
Si	13.454525147806011	8.316167547348872	0.020317744564876002	14	1.2407928017766456	0.4525147934565939	-1.159038851690833
Si	14.932116736008746	9.583667102639637	1.3789686006737092	14	-0.401399677028858	0.023049959195127527	0.6218606453681471
Si	13.665321747666601	5.353545454788202	2.718579763891909	14	-0.25497060105684866	0.32936450505320525	-1.245594855183086
Si	14.880126249311687	6.762597425640228	4.1023820215387135	14	1.0183502825671185	0.8387009831956038	0.22253816432743673
Si	11.02450651256897	8.231046028788766	2.7481879610118534	14	0.1731356611534515	0.11896889982123185	-1.788116332582104
Si	12.1990687717533	9.684223552957897	4.137528442580374	14	0.8509754399939906	-0.8608176311595176	-0.29612345570060683
Si	10.802928399866696	5.441501626420665	5.445188313942518	14	1.2605100942557972	-0.2634097400491707	-0.5511133400473566
Si	12.219353745762426	6.753372514196659	6.805379386171593	14	-0.06771622925886801	0.27946937809987965	0.25667524388410684
Si	13.497733125562123	8.162637493661059	5.424837798821892	14	0.8524610246479722	0.3994075846268073	0.5136127405108687
Si	15.003638473932684	9.587042469881865	6.866775022368842	14	-0.4208477747809901	-1.2143384420271102	-0.11943632676843474
Si	13.462766942577087	5.4117623470777225	8.312841335940268	14	1.3510849924739736	0.863864648074425	-1.0390785336581523
Si	15.131001238854282	6.64917853219017	9.575212299256188	14	-0.03903143564410396	-0.6762048129674569	-0.687003198201547
Si	11.045446897693092	8.29188456553827	8.167421994800529	14	-1.3861121886924792	-0.4705382417508319	-0.5560763446468384
Si	12.384500961463544	9.439378345673266	9.630856702919349	14	0.9177357322948275	0.04905746084002139	-0.3514613555061539
Si	11.03899109821038	5.396409341708941	10.803927901817064	14	0.09891787787152503	-0.4673809244176901	0.055597067221818036
Si	12.403245719352428	6.790796488862932	12.215781755185699	14	-0.8819230634010172	-0.2058617181104243	-0.05429017438758676
Si	13.852638244332457	7.976402425334945	10.858228712694483	14	-1.0865563073894746	1.3866202391037403	0.3908743431797678
Si	14.851697792198737	9.5406065923844	12.27126230607011	14	0.27624958290745816	1.2156196238081398	-0.025972020391475822
Si	13.644627141710602	5.513285528790603	13.68341109444049	14	0.5185400067464006	-0.9097894741923779	-0.38747508483600007
Si	14.93078952850088	6.949717298971587	15.025906066564673	14	-0.4823324160754152	-0.038060586275216045	0.3132277338428919
Si	10.96740381917494	8.162948813940682	13.558375038977129	14	0.07941758668139394	-0.16038914941828536	-0.09910762544415197
Si	12.238901382267182	9.6346089315527	14.810226653897363	14	0.38084034755735796	-0.6524146325506589	0.8386215360412111
Si	10.976858124508759	10.933060276749151	-0.1793040957850307	14	-0.735395514095246	0.49884174044661805	1.0331505932320186
Si	12.1173390057133	12.1950216081182	1.5359723332710011	14	1.1412838267920187	0.046852995138526435	-0.954100160390342
Si	13.535107944394772	13.674661356055294	0.0336062049214199	14	-1.7003598800158737	-1.5220904928696826	2.1602653157152334
Si	15.117712778497738	14.989760143572642	1.4697430401006553	14	0.3010203828933608	-0.0012539280646362181	0.1919800633764128
Si	13.654179758711669	11.003664439112095	2.855642613315447	14	-0.1331238630507751	-0.49958607543680095	-0.6237640346366528
Si	15.066689023195298	12.35453228823035	4.097171503174495	14	-0.2666495898630893	-0.1093683925557989	0.8188381661553318
Si	10.977661003124629	13.721130004108511	2.781908862878397	14	-1.7471156873732985	-0.9980928008602038	-0.7788996445542795
Si	12.198020113969305	15.073210363789508	4.003955657344189	14	1.8614771664608252	0.7466250736915248	1.328222209746153
Si	10.83681315451199	10.917559803879495	5.452299524540225	14	-0.17818788310754247	1.3823542611565505	0.2192918867502178
Si	12.256728564595072	12.270066180785243	6.80252834782136	14	0.6604624493132544	0.4250785285852938	-0.010943652684678283
Si	13.696617628407662	13.808414379348102	5.4340463249875866	14	-0.8673610941992943	-1.143548713468537	0.12500276978655533
Si	15.024185612387807	15.02436585044443	6.904936334539484	14	0.5891237897688297	-0.44000199519502925	0.5543261932554137
Si	13.663093349875616	10.936353717602007	8.276105542944743	14	0.4122993638125617	0.36859417291749264	0.08301816257172931
Si	15.213353645453529	12.234182422239211	9.763724921206911	14	-0.5941474724538671	-0.19755781925794205	-1.1124064573887755
Si	11.000633162705238	13.727421950812474	8.193015798841124	14	-0.6496874611375778	-0.4343561050225161	-0.03469732340593034
Si	12.483353342882815	15.006342044782041	9.537542545421793	14	-1.1222545620965387	-0.06388142567386716	0.3863941921594098
Si	10.999338725753121	10.816642877447986	10.844760014281315	14	-0.4924823685477638	0.41040420208108064	0.7620306225487881
Si	12.131528656352963	12.409029722442268	12.180520637198914	14	1.0430508913777807	-0.4579082010866686	-0.7914486954008583
Si	13.75001724900196	13.629454374398446	10.939663543732737	14	-0.23728782421753022	-0.20823459121038895	0.2837217291888725
Si	15.08471282885769	14.882338261824799	12.410979570509381	14	0.011808829624908111	0.39486469863663765	-0.7139406686407384
Si	13.490408906352043	11.15358973166743	13.614379918753539	14	0.45942361056236386	-1.1975493813970752	-0.9327887826126986
Si	14.87054086175487	12.331150496702868	15.047125001412669	14	0.9674205428329653	0.031589628405467356	-0.07670327079491361
Si	10.994193748500404	13.709299833482833	13.61446184514291	14	-1.1112985681063234	-0.25821944973938776	0.5190480571576618
Si	12.121418939904148	15.026676174624793	15.085155231360313	14	1.1305790297915823	0.15731539300804834	-0.44423326322039697
H	-2.2031497163089666	-2.5794408997616203	-2.086596319201441	1	-0.48221877322026474	0.0839069936809045	-0.6242916254483472
H	14.73178869018243	10.667220612923412	14.951797093264288	1	0.1099672029848614	-0.1701734907141089	0.14213635852949014
H	-0.642058752055744	1.079401480870275	1.128216500715177	1	-1.066005205454999	0.8289186987840363	0.8753214933810048
H	12.476881158122229	12.795306094231886	-0.926684136965057	1	0.03317625749853074	-0.16902266397281063	-0.16515392179758379
H	4.120168240671918	9.427499019213965	9.527678608141104	1	0.13522111366041986	-0.06377086814510079	-0.01743826472337233
H	14.969581673869705	1.2204738077898014	12.319893810802812	1	0.020687370516443458	-0.14102692658384625	0.23786735135669163
H	12.28626302796458	4.0297788552750315	1.356209449705473	1	0.14589377184435454	-0.2789523288199978	-0.061857451565846586
H	17.614034440655566	3.9418554541983184	12.206229138184632	1	-0.2097597708863008	0.144304314535439	-0.0053209024600464495
