225
config_type=interstitial dft_energy=-23350.947718117706 dft_virial="-67.85569594208926 2.6419872315899466 -13.064035370533572 2.6419872315899466 -73.01742920500155 -10.429934667993146 -13.064035370533572 -10.429934667993146 -72.5363509329807" pbc="T T T" Lattice="16.254729908999998 0.0 0.0 0.0 16.254729908999998 0.0 0.0 0.0 16.254729908999998" Properties=species:S:1:pos:R:3:Z:I:1:dft_force:R:3
Si	-0.4840983661498379	-3.225962461929867	0.29487705527916896	14	0.6535952841136708	0.03390568007785675	-0.547160522728161
Si	0.029778665193288	0.16168579840482297	0.0034297480107989995	14	0.5748762667477612	0.5147162589142764	-1.1944069764747902
Si	1.278987168159756	1.6516268513235808	1.349337639205908	14	0.2936407964034718	-0.9354586183771404	0.4067270072522049
Si	2.761824904108281	2.732631409191717	-0.12049631281541699	14	0.7352890703349918	-0.8993803543037585	0.5029346830057618
Si	4.024573597088946	4.102905140520416	1.3545228980468789	14	0.44047867812138464	-0.13581349632618198	0.0019090457002099489
Si	2.6646703834421874	0.18167911619289298	2.7266496685852046	14	0.45378466237421505	0.6034836700923888	-1.7016089229804017
Si	3.9911701271259505	1.5813901633867917	4.091022932956938	14	-0.35995448771019906	-0.8622782760918936	1.4849202803668338
Si	-0.09071764762212899	2.9323532755836	2.769984778522599	14	-0.22837637317789702	-0.22845659166388566	-0.8155939454623689
Si	1.172534941985715	4.181301702871524	4.172231563582302	14	0.5944117820807784	1.2220694986142633	-0.4143043117412133
Si	0.08159874414318	0.19679601500826296	5.375114086308119	14	-0.9357326982042681	0.2150919862097559	0.6886677317858108
Si	1.3729557617636847	1.4010926992361639	6.901124384894948	14	0.13593305272356887	0.6207761531441086	-0.018915364729797404
Si	2.529040917081492	2.9597587502101734	5.501998507977773	14	0.5655732363678694	-1.8491145207499569	-0.10229733870432765
Si	4.013130267233009	4.134471826003694	6.741828031786748	14	0.7046942025778898	0.22267211891461644	0.8190579956602043
Si	2.688873676276689	-0.07779513734447399	8.250803373428944	14	-0.8335700854187162	0.7625841815242159	-0.00904926228479318
Si	4.109569579783106	1.2724690214662469	9.578473457666156	14	-0.8692536848254554	0.2054120317899304	0.40475394102952317
Si	-0.019099307643075	2.835393811676415	8.208849915533817	14	0.5960963702865393	0.08982850634373754	-1.157092010742417
Si	1.362487715702289	4.120378975172591	9.580310242145872	14	-1.3124104262483065	-0.07561415058129889	0.7618642720345744
Si	-0.028965928697837994	-0.09265196048129999	10.795513850142713	14	-1.1183089438722393	-0.5389520118830561	0.24919795539205217
Si	1.312845770560203	1.0656926022938578	12.157708980706639	14	0.33863796772191535	1.2124155123581715	0.46767197353993084
Si	2.5428086733144144	2.6159712126348236	10.879973426749876	14	0.8323346693123851	-0.7470153674791232	-0.33692355469444063
Si	4.081611444339627	3.9576203645937746	11.991260546438479	14	-0.6331351993075285	0.9615589369240917	1.0075488120066443
Si	2.6039589672320727	-0.19076551021202398	13.587149928904099	14	0.4381816526283644	0.46939589965709017	-0.29185002154798867
Si	4.07392295709267	1.2500374941918269	14.689984589040023	14	-0.4118213953335463	1.132225051417541	0.370909710368818
Si	0.07618591908348299	2.5337222792952834	13.47335056481119	14	-0.259925635229838	-0.22223297412593518	1.4100499505546538
Si	1.3927865322526647	3.957279015265686	14.855327701674371	14	-0.7005120426641369	0.7770983281669839	-0.8368343607331762
Si	0.126851912209836	5.442668743809924	-0.067375855472805	14	-0.7183238889905268	0.08209050777221988	0.9743257603912868
Si	1.3945745525426547	6.817201214374781	1.4787577987413658	14	0.63708364574768	-0.48734247190225577	-1.7109276371027462
Si	2.8166195986315197	8.097813855525438	-0.019099307643075	14	-0.8517593700061038	-0.036981750482881916	0.5420535362307508
Si	4.10462814189077	9.516120313735232	1.2779468654455797	14	0.00014603878218441088	0.33844822014928844	0.7147580230220134
Si	2.7248616482952146	5.474853109029744	2.7622312723560056	14	0.2489153909173679	-0.4046187008896834	0.833097259150341
Si	4.212299472807986	6.867330801414138	4.087658203865774	14	-1.3687230320807215	-0.15926223395646447	0.050928197070961134
Si	-0.0009427743347219999	8.077170348541008	2.7065588224176804	14	-0.5911230812657768	0.5055811217117901	0.5663785065541398
Si	1.1997291051234718	9.388992071116943	4.210869056575994	14	0.76185475894489	0.40423432064432124	-0.8664316396260608
Si	-0.19533308931645296	5.513441837833709	5.521000287241394	14	0.8162344077976178	0.4422470843605826	0.010909456983920313
Si	1.458975792442113	6.753482673131502	6.97862693710106	14	-1.4333307950075305	-0.854278024777721	0.04961359092076942
Si	2.5596485735001386	8.072423967407579	5.501852215408592	14	2.229621910168356	0.25260749815710054	-0.3726922576872767
Si	4.166201058786062	9.533659167307043	6.68687078996442	14	-0.8791696667136705	-0.5149471441720256	0.2632125362711153
Si	2.830078514996172	5.361346330075196	8.362928500341226	14	0.017486858613923132	0.9102394176234039	-1.0702989513396464
Si	4.106627473669577	6.914144423552058	9.543753354580533	14	1.1200488108423836	-0.7375135906579839	-0.29412699241951185
Si	0.004486305454883999	8.151568247334499	8.243553763889532	14	-0.12499197114421073	-0.4887244410118354	-0.872929079880607
Si	1.4309038738892699	9.525271726673997	9.37132317970586	14	0.6163553946566461	-0.7123409269105422	0.4748430433883558
Si	-0.28002023214234295	5.338475925093233	11.029224356774314	14	1.114498308677248	-0.006106375135351687	-1.5205177477453478
Si	1.2233472276812487	6.651126638894529	12.158716773960997	14	0.18209622030469955	0.8291135885673035	0.09646530050663576
Si	2.642872790634219	8.09092185004402	10.864515178606418	14	-1.1657162693177898	-0.4084100527947738	-0.7586030820464987
Si	4.133285230720338	9.240505113398228	12.043243172687461	14	0.15197340748437668	0.9401298025227854	1.557468387853856
Si	2.6257565600400414	5.387272624280051	13.450870273347045	14	1.5597538433729357	-0.2948096208820111	0.47057732255169826
Si	4.162446216177084	6.784903066045598	14.897638763627496	14	-0.38307129564365044	-0.8960674850987477	-0.9112285218400649
Si	-0.07699865557893298	7.982031414383631	13.609597710908428	14	0.7753607751916278	0.6336540483611343	-0.96604808681307
Si	1.3673316252151708	9.329922382627636	14.839349302173822	14	1.255559430961852	-0.16514132338151508	-0.6274569132079815
Si	0.09736583215490999	10.76908365931068	-0.266398768478601	14	-0.7111433060524173	0.13080369760987345	1.3458761902058858
Si	1.5488807035687917	12.282268975999306	1.3896818788400458	14	0.1279713679891983	-1.3633370806560754	-0.1725473922562016
Si	2.855273346355122	13.4323723907106	-0.10479424372332298	14	-0.6622079727151029	0.8756405675512352	-0.26618653379493057
Si	3.9701527613536136	15.023304080553977	1.236058426470087	14	0.18448837669456533	-0.2401767181552486	0.3419078994680797
Si	2.6339326891842685	10.75624242268257	2.8053550708045827	14	0.12449806181221028	-1.0536988669506422	-0.2912288425026409
Si	3.9250946500458657	12.158781792880633	4.117680690007697	14	0.6940066319830983	0.07053441780028233	-0.4164828092789747
Si	0.114742138427631	13.618749123847197	2.6574045191728644	14	-0.6353733464887175	-0.1797685986583695	-0.5937278680656188
Si	1.4697689331016888	15.146791263672648	4.137706517255586	14	0.7215447126250762	0.7121118414265171	0.12172409628230252
Si	0.118383197927247	10.858305871781178	5.6086620456406315	14	-0.8919354617387376	-0.33037649210721554	-0.7717913096756662
Si	1.375280188140672	12.265705406222034	6.8224514921353885	14	-0.24824227554455314	0.7139324411037139	0.6026645159373896
Si	2.6161825241236407	13.611987156205052	5.399870039959527	14	0.7068439037360656	0.2746999777310049	1.2185781947000343
Si	3.9404878792696887	14.975385136782243	6.82485719216192	14	1.4316914582554041	-0.5110076966004947	-0.8888642764338208
Si	2.7439121917485627	10.896374449228059	8.047879325244988	14	0.5409741862173526	-0.5390391723534093	-0.6183135484684708
Si	4.098370070875806	12.189259411460007	9.324395774458576	14	0.04197149457769329	0.1333190099445743	1.216199408057833
Si	-0.07888420424837699	13.550251692010669	8.233589614455314	14	0.5863012303483711	-0.05559243923224177	-0.8695313642000313
Si	1.3170557456066339	14.808741645755177	9.605098705257097	14	0.31049027800853024	-0.11845519297826625	-0.9432817205347548
Si	-0.010061677813670998	10.652764812081873	10.67251430892131	14	-0.41366076407958013	0.36468634994139953	1.4534391526058767
Si	1.3423806148048558	11.904492798184238	12.102686719964675	14	0.23168667127758766	0.9481159127576974	0.06612934305527263
Si	2.659046246893674	13.383754493552782	10.775845626952822	14	0.5643452764669666	-0.24613731161894792	0.5968466188189585
Si	3.9793854479419255	14.83354636359631	12.162845475357884	14	-0.09400629537844615	-0.4799405167960815	-0.12051310567651276
Si	2.8199355635329555	10.645759023491095	13.45727463693119	14	-0.7611973273145282	-0.5915977073078762	-0.3203170425421362
Si	4.067242263100071	12.068519277695955	14.745153142351167	14	0.7434379315366691	-0.04160742606436032	0.5764569822985882
Si	-0.05866332024158099	13.454104964598935	13.315744703613527	14	1.0863009966311838	-0.08521002985715555	0.4354894482476374
Si	1.2487046063392888	14.750062070783686	14.922020858490997	14	-0.6011336798297734	-0.6424886233516952	0.49889830476366137
Si	5.39039353242258	-0.022415272544511	-0.20580113537784897	14	0.45908833842861646	-0.1272933675162753	0.9351302882277575
Si	6.630141782582009	1.268486612638542	1.4099190175767509	14	-0.0999573757524609	0.8533994780898263	-1.1445709849438277
Si	8.094286579135185	2.6529994873675258	0.071813396737962	14	-0.3299106078232047	-0.5781986490424564	-0.03934716737741814
Si	9.376524693276739	4.049345805470262	1.3817008064547267	14	0.8295002828074538	-0.33250048221218986	0.2622784537083055
Si	8.05743710643148	-0.004697616943700999	2.617938034953813	14	0.27230139357783884	-1.06261725997464	-0.31555278438390183
Si	9.25741003250359	1.207417592370429	4.0798234240496365	14	0.39321122080525045	1.5101587644104713	0.2918240533842552
Si	5.390848664860031	2.7522183587320614	2.7842564313827007	14	0.6547293986703882	1.1004955548826574	-0.6961625037940424
Si	6.87297119269256	4.236063887934944	4.117258067030064	14	-0.522003799833704	-1.0310595132751423	-0.7459221334969963
Si	5.4596711912947375	0.08823067394605198	5.434964001833057	14	-1.7551681321254704	-0.33164224725632446	-0.5876659730523057
Si	6.686399402797059	1.346249240523198	6.833163359145419	14	0.10955788301789383	0.6200439023489306	1.1391937752772703
Si	7.974603002815217	2.6992116844988128	5.459849993323736	14	1.2462998522618707	0.12951737361820337	0.11233981897429406
Si	9.562511312895518	4.105863501363855	6.677313008777927	14	-1.348762255927752	0.3191109370364547	-0.43232955980917537
Si	8.103844360321677	-0.030266307090557994	8.20374593034239	14	0.40510798223210764	2.0973244003674765	-0.7835299481253342
Si	9.498890300031693	1.489355882642034	9.337269520546505	14	0.3768749318220936	-0.6510342061042713	0.4896114723472864
Si	5.244881190277211	2.7581025709591196	8.257532831611272	14	1.2143860074755326	-0.1225103402892038	-1.0164741470150063
Si	6.834853851055955	4.087186816698414	9.457879616471285	14	-0.2349432332760872	0.1298616446205712	-0.5527773594105564
Si	5.442002299883654	-0.029567353704470997	10.994455489498964	14	0.6490014902381622	0.5654917323292207	-0.32120613076184334
Si	7.008308073914894	1.4164371642702598	12.17638566537208	14	-2.027050178425593	0.17404069022614363	0.042853640813036095
Si	8.243196159831532	2.7899780963106684	10.779893054700164	14	0.17393527490801755	0.175540158848854	0.31558518031093563
Si	9.526702142905991	4.118038294065696	12.289291019319995	14	0.9048408677826889	-0.5224676272334587	-0.6111743603260157
Si	8.089784018950391	-0.024414604323317997	13.567254139495484	14	0.6111136822404601	0.07556427113808802	-0.4279036591110725
Si	9.380133243316537	1.328564094382206	14.869729392373744	14	0.7837304943403058	0.25311400590516975	0.618594313169431
Si	5.410403104940558	2.812783482372996	13.482193137881685	14	0.9911991532758225	-0.9191657810738941	0.12929111635003032
Si	6.866453045999052	4.042502564178572	14.984650332830375	14	-0.8574618244956602	-0.07434916676378603	-0.701415786184169
Si	5.513571875672981	5.411784756982824	0.018010240739171998	14	-0.4422406565972822	0.35894918553002114	-0.08264535230030784
Si	6.827669260436178	6.812779927839533	1.336756478256342	14	0.002053027598138241	0.1424428342836518	-0.23733333278169685
Si	8.22686015627299	8.175235134082003	-0.023211754310052	14	0.010957022432343054	-0.5030750653562418	0.2617693748549162
Si	9.369258829007416	9.70878762734661	1.2550764604636169	14	2.268817382331885	-0.729996450033467	-0.03269108992461879
Si	8.176356710445724	5.496748230217166	2.642336384547222	14	0.20399072476895255	0.6340890793813034	1.089010684528088
Si	9.67904147161314	6.91116980797871	3.9796942878101964	14	-1.3433868460349183	-0.10930077248587901	-0.6546270686786463
Si	5.515880047320059	8.1773970131599	2.652788175878709	14	-0.27842833755575164	0.5821216415399384	0.3856195181264492
Si	6.891566603708456	9.559146583804356	4.043721668921747	14	0.532021854603129	-1.0240851329837086	-0.15528961912630368
Si	5.492879604498824	5.47750263000491	5.449804570239974	14	-0.7890066595677817	0.04444926877471999	0.2311683364450458
Si	6.704100803667959	6.855448593850658	6.827002816509909	14	2.0632114892008158	-0.9423774627936587	-1.276032885515659
Si	8.269756388502838	8.081916729674434	5.4585171054711985	14	-0.2100878439251517	1.3125508085987865	0.22830155401308072
Si	9.651099590899568	9.664477233614674	6.919768560100571	14	-1.5406273908963541	-0.3077173409207505	-0.9165594516108598
Si	8.17479625637446	5.513360564184165	8.056413058447214	14	-0.2208846864960495	-1.1284864071715137	0.03856195181264492
Si	9.560398198007348	6.682693324377807	9.459700146221092	14	0.18249577007145057	0.4988522819784306	0.5655801783522337
Si	5.579956192621337	8.223625465021097	8.076455140425011	14	-2.0931260424902063	0.79672306085461	1.3807349790259213
Si	6.853254205312943	9.457895871201194	9.55319735265766	14	0.27468429398855204	0.8331995891420829	-0.3139085625316671
Si	5.518870917623315	5.401706824439243	10.848829364244231	14	-0.23331212406098525	0.7143620728027107	-0.18509952842916455
Si	7.01895492200529	6.609823370195759	12.269622796130104	14	-1.4399297939222229	1.2444221740465664	-1.3926111716102174
Si	8.27118680473483	8.092124700057287	10.842246198631088	14	-0.09974345978982457	-0.41953805373090663	0.2527512229444968
Si	9.616590799302761	9.402239675992778	12.258163211544261	14	-0.4245643075212641	0.3518344228881074	-0.018451537330042688
Si	8.223381644072463	5.4118660306323685	13.664278622322305	14	0.45529081587075787	-0.416957178210542	1.268062973244264
Si	9.58409759421467	6.763268020536719	15.01902908658791	14	0.19370296105144405	-0.3542828864844844	-0.28645841369163816
Si	5.57243025267347	8.029251404769274	13.47126995938284	14	0.07687964861987577	-0.17788552112189307	0.580342693768928
Si	6.892525632773087	9.390406232619025	14.905148448845456	14	-1.488588733437621	0.4801387490162649	-0.46913776068294727
Si	5.526022998783275	10.869797965826843	-0.05729792292922499	14	-1.057218453023393	-1.1538876421819164	-0.9277540441747847
Si	6.629280281896833	12.174743937651272	1.3586678541736736	14	0.027331877995302137	1.0764963436033312	1.1541352396242468
Si	7.924847274563768	13.555371931932005	0.06813982777852799	14	1.194268651008566	-0.11191301549114947	-0.27006556039143803
Si	9.487349441796303	14.829937813556512	1.311041495540304	14	-1.4477788642435707	0.45440686986169093	0.008047045430999456
Si	8.138369406648392	10.957492233685898	2.6469689825712863	14	-0.41568730929292086	0.6433139481594627	1.0789669187054616
Si	9.372119661471402	12.380610091948755	4.118460917043329	14	0.1224357782349195	0.3037529536276142	-0.6834936394395448
Si	5.190411590352153	13.579282639628143	2.6938963878185693	14	0.5837054424171496	0.06629492223789016	0.018615573849468135
Si	6.703661925960416	14.982829803080566	3.9698601762152514	14	-0.442081505177965	-0.6899316871611957	0.542979391256536
Si	5.503640235698583	10.845188304744616	5.325472141166033	14	-1.1145286477200256	0.2372716262540133	-0.23763029544617395
Si	6.520698686104712	12.369150507362912	6.648363334809998	14	1.6211559521865841	0.13119116318161977	1.1050592668259203
Si	8.054803840186223	13.78349081147491	5.533256353592781	14	-0.14402817782405508	-0.5906474267815496	-0.6326945118556551
Si	9.508236769729367	14.966558818441657	6.961218121368522	14	-0.15805869955610316	-0.09959793522870419	-1.5377009588209616
Si	8.0069011511444	11.041252856906974	8.102885331257045	14	-0.11413162227190525	-0.9523160704086914	-0.556938693371216
Si	9.485512657316585	12.216843688115581	9.391137695464932	14	0.3953992314326964	0.6441896666315051	-0.02272857103010902
Si	5.432395754507436	13.71671638100874	8.224860824494181	14	-0.31299067793237423	-0.03559669604691813	-0.8269438327876306
Si	6.891208999650458	14.993996802528049	9.552270833052848	14	-1.5117070840342646	-0.8843483870495128	0.9938764452456929
Si	5.286379515734888	10.742816015777736	10.777926232381175	14	0.6346272117248104	0.42105012076968573	-0.7565742228383697
Si	6.628906423108925	12.187243824951294	12.034725694215146	14	0.5964853785214776	-0.7373865780551687	0.42016103254997855
Si	8.128519040323539	13.507030365182638	10.805884367824655	14	0.5390479141114977	0.24447303514521607	0.4887843477657948
Si	9.470997183507848	14.89791509403595	12.26679447312594	14	-0.5505448686610719	0.6401262917835431	-1.8148627698960083
Si	8.00379649773178	10.754145562524307	13.46016797885499	14	1.0364840312795907	0.604598501359205	-0.36820336490883016
Si	9.257328758854044	12.227149186877888	14.88541520673593	14	0.33716266748921436	0.33865236591170816	-0.5686526492098106
Si	5.356827515160494	13.487248358883386	13.456640702464739	14	0.28573079088603626	0.3070930765490186	0.05668798720915687
Si	6.810894379170089	14.82200550536092	14.775728289309997	14	-1.3598820293268603	-0.08054424503268283	0.491150793102459
Si	10.706389166051666	0.046959914707100994	0.103363827491331	14	0.12024211117576916	0.33062820331805803	-1.1493241873491857
Si	11.987928326807136	1.474287748016391	1.3567660507743209	14	1.0356268247658533	-0.4284695593920371	0.2295639667252734
Si	13.553762713671013	2.794220580816918	0.21149029084599896	14	-0.5679887898161484	-0.49556538093715335	-0.6748629531008717
Si	14.781986360324963	4.2876401459362015	1.4273278333092898	14	1.8399220478988316	-0.39628754832080765	-0.7548338416471616
Si	13.417011670946597	0.208304363783835	2.7443998336458324	14	-0.44585125979836615	-0.5172760513710157	-0.22133051615856322
Si	14.809781948469352	1.526823035082279	3.9894796352154143	14	0.5678723187451459	-0.5198656686494689	0.7738499937055087
Si	10.669669731187234	2.636956068947343	2.786337036811053	14	-0.8538730756897976	0.20708890667973098	0.06147229998888841
Si	12.095567148264532	3.9268501608760373	4.033481189079078	14	0.20110697304187447	1.0230944861038558	-0.40067668221283237
Si	10.705267589687946	-0.025081048249587	5.353072672551516	14	0.4965084623685837	-0.3697894797808295	0.7779601626702976
Si	12.092592532691185	1.3413403120906797	6.721704676159406	14	0.246660531551598	-0.8247897607504107	-0.22006964610956262
Si	13.396839551129528	2.6862729194912487	5.421651378037586	14	0.7199745386060619	-0.0352920200664806	0.02599438900776111
Si	14.768056056792949	4.003588740776427	6.747029545357628	14	0.5140739968053033	0.2948355890457446	0.31554275707315316
Si	13.577234543659609	-0.005672900738240999	8.001780911223065	14	0.15096424864621855	0.030169349826617557	0.012768366130387374
Si	15.086632508279441	1.2659833842325559	9.329759835328547	14	-1.4344772508697845	-0.021010815565718086	0.7044964845787705
Si	10.90411170066474	2.8158556263257966	7.986712776597422	14	-0.300763272361346	-0.3256389734443107	0.8535483450878629
Si	12.274401686723351	4.028019599829653	9.414772072752617	14	0.07418950112340483	0.5622002032983671	0.9564370380158247
Si	10.809411644214906	0.03945022948914299	10.788378023712662	14	-0.9473407245036727	-0.7072938471670915	-0.8735402316152061
Si	12.097777791532156	1.3891292180231398	12.012830573027722	14	1.366179951808563	0.13055712860967125	1.0284017617057053
Si	13.679395521137675	2.5973432921591093	10.740003947503476	14	-0.8265103444306536	-0.185558727839343	-0.5166834115947215
Si	14.811553714029433	3.8393184403160725	12.301287009992835	14	0.2862617241346468	0.07569976838845982	-0.2690687428588166
Si	13.44943985711505	0.041969712625038	13.491832192717723	14	-0.0670526269757378	0.12282632913304999	-0.017219206550095713
Si	14.739984138240105	1.4509459558670668	14.94993022974475	14	0.5504798196964721	-0.5406093463724236	-0.41449585908756426
Si	10.911897716291152	2.6349242277087175	13.592481480314252	14	-0.9730319801941884	0.2022380022722076	-0.2750229085592155
Si	12.082530854877515	3.9557835801140575	15.095198750941483	14	0.698377768137882	0.3814126756016229	-0.6202439343428381
Si	10.859134863006538	5.3887843141615885	0.17423444989457096	14	-0.5165965082349007	-0.1177545667785259	-0.7305515516720871
Si	12.322905800771807	6.795176055348086	1.2148134944790239	14	-0.9646239515762401	0.3679007458126487	1.4445801521147745
Si	13.61787136843211	8.179315071289162	-0.030185033441012997	14	0.8661290205298794	0.11208425110547134	0.35232756088851175
Si	15.089785925881786	9.5055872487542	1.3050760096637009	14	-0.2233640033562683	-0.22926314740281606	-0.7890894491590904
Si	13.420246362198489	5.45151131688042	2.7529985857676933	14	-0.6709042222394397	0.03512309844694686	0.3579423406866512
Si	14.747591351837517	6.836381795667402	3.9973956886810975	14	0.9656351672986543	-0.5431079465225435	0.45853709344797683
Si	10.96152340670333	8.256541293086823	2.5912965326329616	14	-0.24980679313186324	0.5238771071699639	-0.8059553858381977
Si	12.33259361979757	9.662981798463047	3.8852868164987244	14	-0.8406971893661668	-0.5655714365941452	1.4169076026645528
Si	10.827210573465264	5.436036814007052	5.224855363029324	14	0.2424593454584761	-0.4885910006457197	0.8508764524391649
Si	12.087049669792217	6.793940695875002	6.628451290671473	14	0.7568958681139203	0.012734684650693434	0.6892282327456032
Si	13.548902549428224	8.154364060878848	5.381307138403448	14	-0.772918739358551	1.0613453341727626	-0.040884688358866696
Si	14.91269064352323	9.4779542079089	6.773671047678479	14	0.10027644992269127	-0.5810677454692098	0.17337477394822529
Si	13.530876053959142	5.45606264125494	8.054560019237588	14	-0.646858988174883	0.2996646390580467	-0.11999322818077884
Si	14.838243980540012	6.748346178480257	9.504351889281116	14	0.7314270130335975	-0.6022857921237318	-0.4898716682056855
Si	10.844164256760351	8.116246719242243	8.15137319057559	14	0.579369530405252	0.1548175641895245	0.1980414441686619
Si	12.231684256522497	9.418591934281231	9.607618188392992	14	-0.1637819799987528	0.3496852359509956	-0.9029773306466456
Si	10.984653887363837	5.480038367870715	10.94183892878353	14	-0.4476240369166083	-0.9374193432942852	-0.5518970129489377
Si	12.299970376870206	6.747387149415626	12.38057758248894	14	0.919635779126417	-0.6935931982476186	-0.9314034710662028
Si	13.628827056390776	8.036972401476051	10.874170488172364	14	-1.3058505081344807	0.11582006713564648	0.5488250563124248
Si	14.919728941573828	9.338017238122319	12.19932108927368	14	0.5633515442607294	0.571486521493678	-0.22058772383157244
Si	13.562328956333058	5.175294691536782	13.667480804114378	14	-0.7695706460106544	0.8786055662064299	0.46937404526186893
Si	14.870981006576738	6.731099910046808	14.911243972561332	14	-0.23892844652231673	-1.0266672940567334	0.32388136584745747
Si	11.00082734362329	8.054738821266586	13.684889619846917	14	-1.0997365645921497	0.9559719250634097	0.3259079110607982
Si	12.182172349219684	9.521923252312746	15.076457047356406	14	-0.1369183002822496	-0.5540328301383847	-0.8878404622953379
Si	10.867018407012402	11.059149314536784	-0.15867867337165797	14	-1.1753645991421773	-0.761039718558403	0.8783934500175178
Si	12.255903804086909	12.090837021861015	1.3753939712500347	14	0.017978453951135443	1.6850070388176732	-0.5084571601229079
Si	13.518002307871214	13.68547479012364	-0.043188817368213	14	-1.1770558722217708	-0.883118884485418	-0.37379140521164
Si	14.873175395114451	15.05963340190059	1.3856181963627958	14	-0.1278947490506579	0.842402346414489	0.4921761499041342
Si	13.77619243774577	10.876868773337259	2.589020870445702	14	0.4719762609563907	0.5492372044952446	0.6536770452628515
Si	15.15977879286994	12.19023469525455	4.104563122971134	14	-0.8016253873685364	-0.2681272040905784	-0.7953945707356895
Si	10.864937801584052	13.61639218801039	2.5977821698666523	14	0.022815474389930025	-1.6560502222600377	0.8045700742917019
Si	12.119250289741945	14.855685305732369	4.02888110051483	14	0.6609535304294026	1.207308268750229	0.03351050119014999
Si	10.771375576227847	10.99856793616594	5.3272601614560235	14	1.252607030722726	-0.6025752985827805	-0.018811749185395434
Si	12.33326006372384	12.240494320133177	6.6527521118854285	14	-0.48254530359592357	0.35484955809704505	-0.5680456112437237
Si	13.711417339058405	13.629249679368408	5.211477720314216	14	-0.3129940203692904	-0.34588797050366893	1.0115579365323513
Si	15.04975052611592	14.925125511903616	6.676191432414206	14	-0.5086703047539481	0.21307649674929183	0.0029210327542202328
Si	13.488191133218107	10.777422335753995	8.019449802634147	14	0.12441064423132525	0.035982876066004386	1.3032552344243231
Si	14.907212799543899	12.075151207498829	9.480928823482246	14	-1.3160210294493904	0.3659101960737901	-0.14332806584537877
Si	10.955395373527637	13.591424922870166	8.020701416837142	14	-0.08045605612020175	-0.9653628872452508	0.7004163975462274
Si	12.221476286139646	14.923191199044444	9.412090042317633	14	0.1712780375596445	0.12645647273456706	0.6382624975369677
Si	10.77018898094449	10.865848066458955	10.777308552644634	14	0.16580595410677335	-0.5719488062302406	0.38933502242459517
Si	12.047469402463802	12.135960152088398	12.283439316552755	14	0.21294511326743226	0.6361251376843287	-0.4506659116208755
Si	13.462898773479704	13.481591712875053	10.857720701504457	14	-0.6635794002928699	-1.0913982129283775	-0.9460366598852936
Si	14.741349535552462	14.787350421194933	12.118616355275494	14	0.798737007651882	1.47127825264866	0.6223309005312021
Si	13.373676561009203	10.586981920140152	13.438662971185384	14	0.2506472874610196	0.29786949332351936	-0.21110600163193033
Si	14.848549479302319	12.044836136218544	14.56826917148143	14	-1.2035680818410097	0.7569326349199984	-0.6127265366077891
Si	10.728365560888633	13.652542707328006	13.594789651961328	14	0.26729853684589466	-1.7036074431457529	0.589180611196405
Si	12.001387243171786	15.058316768777962	14.881058939120319	14	1.0059786379876297	-0.18634265785145612	0.231953294899287
H	13.7640225214629	12.965052156772833	13.543959486062896	1	0.1310854907529617	-0.06309672433015796	0.46577089826621343
H	0.5104667890082177	14.008620446187551	4.21860793348567	1	-0.9182049590157547	-0.9914002137118582	0.43072184765248683
H	13.97585578710998	14.196996511102952	2.264409037743999	1	-0.5051759155133349	-0.5741823254218532	0.44232370329912296
H	2.3599185797433013	13.127765254107905	2.3150213902616525	1	0.8157088738701794	1.0497560769421952	1.1259415271256308
H	17.45498566737252	1.4509459558670668	14.94993022974475	1	-0.259942604524951	-0.31956627978865293	0.19640262163759953
H	6.877447745309499	6.784903066045598	14.897638763627496	1	-0.04499999953429571	-0.04277573632183561	-0.04994397795440845
H	9.607527161905503	9.390406232619025	14.905148448845456	1	-0.053915307231909175	-0.035674857648650644	0.04000408478671597
H	17.764752055248334	14.925125511903616	6.676191432414206	1	0.08528022103239559	0.0027721657561836587	-0.20673409414555052
