224
config_type=interstitial dft_energy=-23336.755225683057 dft_virial="-62.91084222803882 -5.351009960100832 8.813196212841092 -5.351009960100832 -67.64275965775215 2.113589785271957 8.813196212841092 2.113589785271957 -70.67513007729345" pbc="T T T" Lattice="16.254729908999998 0.0 0.0 0.0 16.254729908999998 0.0 0.0 0.0 16.254729908999998" Properties=species:S:1:pos:R:3:Z:I:1:dft_force:R:3
Si	-1.364682104240004	-1.6849653023669398	-0.9000894139809659	14	0.6910107800640618	1.0097478783869671	-1.9265253597289758
Si	-0.008891337260222999	0.063751050703098	0.05952482092675799	14	0.2599022381714247	-0.44304052746238026	0.40823804584885587
Si	1.3758328489575777	1.433309573915802	1.3682256353601658	14	-0.016118516362540324	0.08331152568875821	0.7702388762833607
Si	2.8091099134135615	2.6923034242874877	0.029632372624106996	14	-0.5062858616800427	0.07811660738939902	-0.6969379491585991
Si	4.150108876176152	4.101295922259426	1.273314267421515	14	-0.5734500746266751	-1.1639113533830456	0.18534429765564261
Si	2.5091126182130576	0.0022106432676239998	2.821756093282764	14	1.2933536507259007	0.35151534871787704	-1.2761097615647317
Si	4.050727457512527	1.355904550089144	4.00402761848397	14	0.016418821463933614	-0.3192968279511014	-0.17258158795695958
Si	0.170268295796775	2.8294770899895387	2.8490802942597924	14	-0.24530478771628395	0.21740495255576112	-1.4438373597877836
Si	1.4527502308869658	4.187185915098581	4.1712562797877615	14	0.7460537740893879	-0.5158447170392892	-0.2691685017452383
Si	-0.067587166961622	0.06627053383899299	5.376625776189656	14	0.271628278205024	0.029024950848619648	0.09972031984194324
Si	1.4346262070384308	1.286009211480444	6.763853190813443	14	-1.2864885424105734	-1.0724177992339803	1.175980635976885
Si	2.6216928775627917	2.5162646993730178	5.39917108657344	14	0.47116379167522393	1.6267517058053542	-0.9518051917815779
Si	4.007993772581766	3.8926502091475017	6.571494717070337	14	0.4750628728932285	0.5470841609001524	1.5462213447414004
Si	2.752332141841425	-0.16778132212069796	8.10589245629021	14	-0.6392361751217078	0.11646078658142739	0.08967809668250888
Si	3.993023166335577	1.193243467889781	9.540941286306275	14	-0.44945517812561775	0.8904460204267759	0.05884668723595318
Si	0.11127988095701398	2.7015848750655267	8.153079937216036	14	0.6847578519254617	0.816203040312712	-1.3810959622128702
Si	1.454489486987229	4.157358485715567	9.353426722076051	14	-0.5995151690307402	-0.10575341847567073	0.7655113849312044
Si	-0.199380517063794	-0.16136070380664297	10.81472694089515	14	1.877587198175809	0.10471469192633089	0.4837233840536153
Si	1.323395090271144	1.2242249830963348	12.139471173748742	14	-0.9399433973870747	-0.6785167508713341	0.0949810014053143
Si	2.4968077876719446	2.6624109759848364	10.825845176152908	14	1.4131429902547918	0.22053630172516947	-0.35806189708403807
Si	3.9441939576889404	4.016202411185811	12.220224671936654	14	-0.46166124352248866	-0.1488986226320116	-0.13853012620745042
Si	2.663597571268194	0.006924514941233999	13.616944848827297	14	0.6558079773521903	0.03444381242136374	-0.44377997735245484
Si	4.1145760365950785	1.343225860760124	14.901377351506568	14	0.023229679457005877	-0.2307050232663551	-0.10195358192302387
Si	0.052925400583704	2.5865989156892604	13.523220076172002	14	-0.016749208497572644	-0.10266037877553258	0.059485092686945955
Si	1.360439619733755	3.9232741202960573	14.843721824519344	14	0.26733350387824867	0.5078467797199047	0.5684940120115576
Si	-0.029421061135289996	5.282364597447365	-0.049869511360812	14	0.3350620744426534	0.5032406445388593	-0.2781509152917077
Si	1.3396660749100529	6.545097035698121	1.3781572753345648	14	0.3444576646140705	0.3320510530022279	-0.0022106363542633185
Si	2.451018213518292	8.192806497113633	0.08868580638350398	14	0.5061976727675618	0.19547085306957787	0.016124429904776662
Si	3.9329456845919126	9.507082683905828	1.435552726643244	14	0.06455119860976574	-0.7278092107376171	-0.19026539323840605
Si	2.9461535412763404	5.310062657212302	2.6907754796760415	14	-1.5079522418247202	1.4311178446584791	1.0588817010549967
Si	4.124426402919933	6.8172174691046905	4.115014914302622	14	0.9567615115072272	-0.9845631304445206	-0.7375554996747025
Si	-0.20292404818395599	7.913664020386376	2.5213686845644436	14	0.5976238639572392	-0.3397828809209773	0.2970331127628752
Si	1.1855549806428238	9.434960447299595	4.073679136144034	14	0.3773932666546354	-0.8100447288498932	-0.040558672204271916
Si	-0.005396570329787999	5.449983372268973	5.412272398880093	14	0.10719863677612596	0.12901755074396656	0.677453598821453
Si	1.2863668155384418	6.738560831075039	6.878400272482167	14	0.5113625091346752	0.6675345316068537	-0.7067724270081656
Si	2.698756552061361	8.04233646234602	5.377942409312285	14	-1.0638261936961733	0.6496578934263961	0.6665248585476314
Si	4.129644171220722	9.460366590147363	6.662504949830828	14	0.4892872559664157	-0.6804147408186675	-0.03432039936599664
Si	2.8482838124942518	5.448569210766891	8.020490105348324	14	-0.1741982989822687	-0.37924857625365427	-0.13035786794735976
Si	4.031709423518997	6.8835367671334105	9.510967564354079	14	-0.04028279260342003	-0.04282664420717454	-0.3399736569357322
Si	-0.006778222372052999	8.250835882888763	8.138483189757755	14	0.24703745559153176	-0.3035251536962491	0.012504570724540181
Si	1.3473870716168277	9.656821255827536	9.475922366670275	14	-0.31396332707498625	0.7715519397703603	-1.197114093266374
Si	-0.10087685381525398	5.425227418617566	10.726561285868735	14	1.4651747057291604	1.130805801280819	-0.40125980889944196
Si	1.424288198816307	6.900880563946313	12.051289263992416	14	-0.8969164640754607	-1.1058848487442199	0.7169830575660696
Si	2.6575183022822277	8.344625674463693	10.760387378809364	14	0.9860566855249944	-0.5451049240247026	0.3390364890465383
Si	4.113470714961267	9.537348990996387	12.212503675229879	14	0.10117762233740317	-0.6170403371139336	-0.7171265252429339
Si	2.6345503689208107	5.432997179514069	13.581330735596678	14	0.15247811545872175	0.4438853926705809	-0.2944764056325199
Si	3.8954460226918495	6.933048674436224	15.02049201227972	14	-0.40709081865500585	-0.6982026758655799	-0.6334930971680931
Si	0.09544777402564798	8.160865952842448	13.592448970854434	14	0.9047331384697749	0.05460487767877289	-0.43057863708615457
Si	1.3527186230269799	9.749001829141474	14.880229947894959	14	-0.44187633097341716	-1.5641640603285858	0.7772765057656701
Si	-0.012987529197290999	10.82955125457216	0.21142527192636296	14	-0.2638383433060394	0.2612878068284525	-1.0398498652541965
Si	1.3485411574403667	12.094900704338263	1.4955164252775448	14	0.7405482662673548	0.9172425942944232	-0.6897074867772788
Si	2.7463504012349125	13.50976115980735	0.089368505039682	14	0.43106534732325863	-0.8433554551566679	0.9460549147330667
Si	3.995331337982655	15.018834029829002	1.395826166745648	14	0.2886358827872716	-0.09651158040239845	0.28404054624857095
Si	2.6659870165648165	10.789093231828657	2.8591907362631908	14	0.49455570787793124	0.5977652747498474	0.3972005478199922
Si	4.192566230698461	12.320370062906003	4.032002008657359	14	-0.581333083538249	-0.9720410762038032	-0.15483941858474573
Si	-0.144732115109736	13.399082703856969	2.641523648051772	14	-0.1826680341279005	0.7160919124621062	0.02038706541505016
Si	1.0980720242725859	14.895395610900055	3.9433324570037636	14	0.09675532118674848	-0.22939915887425189	0.5400809842291331
Si	-0.074706738661764	10.770400292433308	5.519423578440222	14	0.26899443791506433	0.445206426584073	-0.7797704779262137
Si	1.4257673792380259	12.280188370570956	6.532678422047645	14	-0.07396015852884763	-1.6009298379645753	0.6978005549935088
Si	2.627479561410396	13.622487711726265	5.20994977570277	14	0.2484970720817798	-0.04768809014651053	-0.8211231074533473
Si	4.021664000435234	14.825175177693175	6.546267376251569	14	-0.5101147517228073	-0.06103135542648301	1.7557880256181582
Si	2.793472863241104	10.862483337367793	7.8591619110014985	14	-1.0228517737616336	0.24002759404668003	1.2312450021702759
Si	4.027873307260473	12.125654653326091	9.414642034913344	14	1.4680204050975005	-0.38255810302174886	-0.6401807992163303
Si	0.12171541755859198	13.479494852716792	7.930845269900189	14	-0.38906557058704366	0.8167139189398255	1.381767277811961
Si	1.3336355701138138	14.790357546228098	9.585658048285934	14	0.6363704211318708	-0.34725065632334734	-0.8189921753640086
Si	-0.071325754840692	11.014286259987944	10.824886147088277	14	0.7510167786888697	-0.4998161893629542	0.3118977010607793
Si	1.4262387664053868	12.228449565270608	12.157790254356184	14	0.49385276768340275	-0.31570242271353444	0.7357151024865405
Si	2.943097652053449	13.45449507811675	10.871732278686013	14	-1.7323392879878756	0.8032904351738643	0.03478216988149523
Si	4.064690270504357	14.803718934213295	12.376367607442507	14	0.49011977986907973	0.37589688335830923	-0.018884511465955624
Si	2.8826138020620595	10.832493360685689	13.579997847744139	14	-0.575760726977892	1.9135932141896947	0.11724111704609233
Si	4.226148502690454	12.325880416345154	14.963015287321497	14	-1.313896010902288	-0.8471339515351572	-0.17235147403080633
Si	-0.005591627088695999	13.653875595180544	13.528437844472792	14	0.765068640595075	-0.9941762361260219	-0.33371532947595983
Si	1.525083778982016	14.907440365762625	15.050677045720732	14	-1.4948604306450584	0.32000439613520615	-0.057115047802833455
Si	5.4728375225210275	0.005445334519514999	0.010256734572579	14	-0.12393704663135398	-0.22516994773314034	-0.0659863895994724
Si	6.765462409074434	1.3792625969683767	1.3892917653222299	14	-0.10543408719490832	0.19392073367206059	-0.34884422740077514
Si	8.092856162903193	2.7766329630553797	0.050275879608536994	14	0.08684885238821793	0.0010978619717032297	0.07373287281854654
Si	9.60716305595554	4.0669334232317995	1.345940400654927	14	-0.3497942508165699	0.3835410365856415	-0.577320102354562
Si	8.292431736725895	0.056907809411408994	2.491264924772976	14	-0.20286200953340755	-0.9708051458764081	1.0555094393170905
Si	9.406075792251302	1.322078457148515	4.122036957623309	14	0.3705698102454944	0.7599770807295857	-0.7119444624701754
Si	5.3832251965327105	2.8052412876952197	2.6579246705299524	14	0.997750843852624	-0.8581189990154902	0.6466394157805422
Si	6.942655219812443	4.06482030834363	3.9444702880973934	14	-0.3013412568373153	-0.42650549203797594	0.5421584373278128
Si	5.333843327069169	-0.102225996397701	5.342815937978936	14	1.7903575650896768	0.7987061543880403	-0.9785935381122008
Si	6.606117291776507	1.221006546574353	6.8665180649186865	14	-0.1841250795128284	0.6855590083432198	-0.6829861032493475
Si	8.042791594783472	2.6253501917923163	5.554111172066027	14	-0.3180056188593231	-0.11166464671722316	-0.8046142973032087
Si	9.470525796340487	3.999330001540269	6.773069622671847	14	-0.2137724949594559	0.4523350731947156	0.13940713023215295
Si	7.974115360917947	-0.057964366855494	8.165027163699152	14	1.3825401520711973	0.04764540979819607	-0.039505033244075234
Si	9.409651832831283	1.3675754461638059	9.463308696260892	14	-0.8163349380156355	-0.2646374428395414	-0.3641978399305714
Si	5.2627126289873845	2.639719373031873	8.194675791053168	14	0.37694280900254545	0.30509249949941136	-0.041996177188766706
Si	6.626208137944031	4.101035846580882	9.577937051579159	14	-0.38461241617254716	0.2545648806373293	-0.623525436062943
Si	5.337841990626782	-0.068302375077618	10.951624276188747	14	-0.11930314351285108	0.23902769118767445	0.24185102193972902
Si	6.831407848315247	1.3279464146456639	12.076077727103641	14	-0.6352867002394283	0.3360038703214237	0.39265483361397036
Si	8.093733918318279	2.7913434936230246	10.776512070879093	14	0.16167650185208352	-0.20122575810766533	0.5178908026530632
Si	9.5444197985068	4.038260079672323	12.155823432037195	14	-0.030999302623961358	0.4287294981399041	0.24252799397052402
Si	8.129705635606896	0.054355816815696	13.482664525049048	14	0.21350047201658423	-0.5762425521148878	0.46003476229696305
Si	9.400386636783152	1.4452893098587347	14.84446954209516	14	0.008043188773019235	-0.3181850820106694	0.5846796342229538
Si	5.394440960169921	2.65992400230876	13.43811031036848	14	1.0183369128194535	0.8172399670883278	0.42567888167754836
Si	6.653841178789331	4.114998659572713	15.047182278790297	14	-0.13537409442696866	-0.3376131251413043	-1.0417195730430084
Si	5.252342111305443	5.551526670010496	0.052649070175250993	14	1.3760463113640995	0.6720650762914866	-1.028554742472254
Si	6.758830479271562	6.799093445256155	1.3438597952265747	14	-0.5562478373716924	-1.3493692938938389	1.296794818086387
Si	7.94659610318201	8.106770211705296	0.05952482092675799	14	1.742037497255474	1.250194305490299	-1.0651950501686203
Si	9.40809137876002	9.631805226497585	1.287992288529342	14	-0.22693244043010186	-0.8601576284238356	-0.15629594974860964
Si	8.30891403285362	5.478721734748086	2.6486269650220047	14	-0.9073718638598428	0.2727518512299288	0.04456522562465867
Si	9.538795661958288	7.022092084877727	3.9131961877524777	14	-0.1934437936351731	-1.057912137238769	0.8399561968129001
Si	5.486784080782949	8.201502777614948	2.691994584419217	14	-0.5568119378789328	-0.2232835277597477	0.4300765002171296
Si	6.9061145869770115	9.537852887623565	3.9890570122377804	14	0.12686579270153467	-0.27873687019416943	0.6128620338581608
Si	5.493155934907278	5.201611099259454	5.362874274686643	14	0.20788800621323303	1.685933408064523	-0.019454525515432454
Si	6.8273604205679055	6.793095449919734	6.727263793788284	14	-0.1353486404842992	-1.2340670473696702	0.36439684348235085
Si	8.23885614694583	8.201226447206494	5.508354107372192	14	-0.3111793342343299	0.2452034861666701	-0.8414808622677479
Si	9.485707714075494	9.553424918876388	6.976074944505347	14	-0.40262095205592835	-0.04636859889621053	-0.11494717687945621
Si	8.131201070758523	5.333518232470988	8.208703622964634	14	-0.3247254597240621	0.3794226400838283	-0.6211199099254125
Si	9.571028791367834	6.661448392386744	9.505636012943926	14	-0.8229779028313021	0.705633941572404	-0.4652463927809032
Si	5.491514207186468	8.098138950123616	8.154087730470394	14	-0.27317788338147725	0.49665475826130007	-0.4617682015038068
Si	6.828303194902628	9.46155318543072	9.530391966595335	14	0.44525424914302775	-0.5145627639266636	-0.19480802211804368
Si	5.215752714280283	5.48140376518307	10.951315436320478	14	0.3914883231302192	-0.6802820717841479	-0.5943763008273601
Si	6.582970556386091	6.7188438436954225	12.307805156686346	14	1.275576257210801	-0.21779781744867974	-0.07185056661366612
Si	8.115596530045883	7.911550905498206	10.914693529835501	14	0.08534629843912339	0.7997569651323848	-0.15854155313522697
Si	9.499995621665503	9.32257524470877	12.272727449542723	14	-0.15076267398911897	0.10218241029651705	-0.5058837408079716
Si	8.066897359238519	5.284819061663624	13.545619093986605	14	-0.6108102918126826	0.1520880787816553	-0.3357182205203552
Si	9.318365269662337	6.754084098138135	14.880815118171682	14	1.12998664712582	0.19918352915187168	0.13814317485676814
Si	5.305966465275233	8.110167450256277	13.599422249985395	14	0.11900360974305382	0.5768002248588279	0.5468213939364334
Si	6.550493606027909	9.498825281112056	15.089948473180876	14	0.90548415833379	-0.4253379531120967	-1.4265772726630976
Si	5.278837321057113	10.870171824614749	0.11799308440943099	14	0.12367890765721108	0.8374349709359628	1.1548104118813176
Si	6.794330809392818	12.226320195652528	1.4412581368413027	14	-0.5798955785537543	0.18741789409634205	-1.2092404543983204
Si	8.23154151848678	13.393361038929001	-0.056566460083319996	14	0.08749111449719092	-0.3540108635416127	-0.5366799261116413
Si	9.581057959721687	14.753296762035577	1.2011432666255548	14	-0.08395507335039126	1.1466327543000545	0.17808375334207646
Si	8.17365842528083	11.004712224071541	2.7328102112207158	14	0.950910447130166	-0.4173004207707818	0.624358474186671
Si	9.626002287920072	12.331081929916035	4.119940097465048	14	0.004835220665070477	-1.6040586160286636	-0.20278384793167503
Si	5.50139708297114	13.702168397740182	2.7033891500854255	14	-0.4384084241176015	-0.24374335545535802	-0.5429379964608817
Si	7.032235036340942	14.868217702492206	3.9615540092317523	14	-1.270701698634332	1.8907967659791336	-0.23786889401988373
Si	5.534377929956501	10.815442149011146	5.338622217662414	14	-0.4013001752529683	0.9868755825694616	0.4043384504097873
Si	6.741454172998841	12.437371608790984	6.699874573891619	14	-0.008057072741748035	-1.4488826397575103	0.004100141654040141
Si	8.222617671766738	13.598642022949763	5.343319834606116	14	0.40560934776953644	0.1686755647545906	1.2701108586317622
Si	9.529611739559702	14.896500932533867	6.830367545601072	14	-0.4683628295394547	0.1823849554321522	0.2956087204155131
Si	7.980324667743185	10.986669473872553	8.12848653086372	14	0.5640462569182335	-0.26516889030921603	0.11152606414046719
Si	9.450857573150596	12.241160764059444	9.493835079029992	14	-0.4803621780685858	-0.47379994595997177	-0.04551293504566525
Si	5.372887188310586	13.667740879792921	8.109289694841191	14	-0.46600615440300697	-0.6737609773606563	-0.016366113804870585
Si	6.663642780924459	14.946435462814316	9.564510644674325	14	0.3427072561121137	-0.6250662994813078	-0.05308792553988552
Si	5.521276617649847	10.807038453648193	10.843058935126537	14	-0.8088784754766742	0.5829040288888595	-0.20370610341001216
Si	6.884284484709224	12.15639234758401	12.16957493354021	14	-0.1508986854605548	0.30543137118060687	0.5650803554779968
Si	8.168164326571588	13.612604835941593	10.827714470092442	14	-0.31203474097434314	0.10451028905337913	0.2546085894277718
Si	9.55483908037847	14.984146436203195	12.16113872871744	14	-0.6924593408014331	-0.12072290787063686	0.0676794624527899
Si	8.068604105878965	10.666272492636253	13.592091366796435	14	0.08522699915226853	0.06212227541382184	0.062187838599485616
Si	9.621190887867009	12.106799166631651	14.630833626901172	14	-0.45167841289594973	0.779480200135569	0.7345082256492629
Si	5.593496382635535	13.55868789683344	13.667529568304104	14	0.3211680784031052	0.06166384733523944	-1.0930630036231732
Si	6.948945800287227	14.895688196038417	14.97835975235559	14	-0.36681779625180233	0.48702005529510917	-0.08631200559737101
Si	10.82755192279335	0.077551316395839	-0.07447917244303799	14	-1.5256303906744624	-0.5116129347928576	0.03659299935847552
Si	12.049550007892154	1.4056277688807748	1.260700597012131	14	0.6082067905655008	-0.1871576982379431	1.2412602287238488
Si	13.562556522551782	2.5993101144780986	0.09565908551446499	14	0.4018519344546721	1.220118801007867	-0.38303555727970034
Si	14.97691308139369	4.012870191554466	1.3878288396304197	14	-0.5902864435946008	-0.2858513757255512	0.4678174981010513
Si	13.448188242912058	0.29773788774315296	2.880549451363617	14	-0.9865274549091136	-0.759599128247524	-0.19881328998577036
Si	14.96993980226273	1.5834545140852347	4.049508352769351	14	0.006325690419160319	-0.7039948619308095	0.6906436262243445
Si	10.856143992703283	2.7679691920138825	2.7397347261619496	14	-0.10385105764929316	-0.6193715583077117	1.0920026797891442
Si	12.243842794494432	4.1292865671627235	4.091380537014936	14	-0.4643971566936583	-0.6381046316703107	0.6161365935939015
Si	10.804080092804755	0.05983366079502899	5.433484821411338	14	0.036677588723508396	-1.1030170378701265	-0.10142007756909314
Si	12.203449790670565	1.327296225449304	6.721607147779952	14	0.11577944367158814	0.7215516546094407	0.5978771178312738
Si	13.652428924218643	2.7488698843708077	5.540668510431284	14	-1.4302192433490875	0.2708538612825954	-0.8462073251777761
Si	14.95952052039106	4.0896250261847635	6.8020192966397754	14	0.48638550650209667	0.08864374101221331	0.6377158805459043
Si	13.603973574359914	0.10494053629250398	8.11322333947917	14	-0.15584574920705171	-1.0423003857348296	0.21035395332578702
Si	15.103927540902616	1.3604721291935726	9.450353676523418	14	-1.3923764296944878	-0.5437604930527971	-0.11131009129357473
Si	10.776089447901457	2.639995703440326	8.15465664601721	14	1.3807591474159306	0.41979799247877364	-0.48069976419712124
Si	12.310243366172696	3.951882444935898	9.519777627964757	14	0.1749765725626775	-0.05954705632516152	-0.48585277347976197
Si	10.76892111201159	0.152761951684782	10.858988570437356	14	0.5390854522491719	-0.026268211724356876	-0.2912728084036154
Si	12.12713383374781	1.5923458513454578	12.101841474009406	14	0.34954511071104755	-1.0942089452643633	0.6499936797812075
Si	13.80722271714205	2.6026585888393527	10.887141762639747	14	-0.871678237142355	1.1185339155877523	-0.39025470679761215
Si	15.102968511837986	4.047947898698087	12.192071479734267	14	-1.0331917309171412	-0.17602764041755406	0.6075624715722716
Si	13.453438520672666	0.07660854206111699	13.49074312581382	14	-0.11860405997630283	-0.2525987563990121	0.37697494781904733
Si	14.895834488607598	1.347305797967283	14.941396496542525	14	-0.3463060322287249	-0.14870321862768032	-0.8493078210833426
Si	10.856143992703283	2.7566558999972184	13.661271497289139	14	-0.10679985834097099	0.37323347535716783	-1.0206503933865227
Si	12.264209971070407	4.02824716604838	14.947215689849946	14	0.14563049065957137	0.08863448503306078	0.4635044689265028
Si	10.9034940209282	5.4522915439160515	-0.048325312019456994	14	-0.4444037275031228	0.2594330114504977	-0.020967878106871615
Si	12.337616331339452	6.824678390132921	1.2387729663648899	14	0.29467952295281163	-0.7258400011729157	0.050681370960226915
Si	13.63004616113395	8.20616788509883	-0.169569342410688	14	-0.18983987530792154	-0.5266924674955261	0.5625084788262529
Si	14.796924457111333	9.45324701844722	1.3891454727530488	14	0.05835792011459304	0.10963167374058207	-0.3483166365890808
Si	13.602380610828831	5.375796784964297	2.752884802658331	14	-0.3049325767484981	0.36900220733180017	-1.2070768692714158
Si	14.83648846970984	6.733489355343432	4.087170561968504	14	-0.4553301537821561	0.8801387163088342	0.7457706953936396
Si	10.869391597579119	8.136711424197674	2.4117630407880566	14	0.1209926168187204	1.3698283502578532	1.2548006977818764
Si	12.05528792755003	9.50217375547331	4.181399231250978	14	-0.28056389763466666	-0.8306878763548302	-1.1281182248896682
Si	10.693255344285193	5.4728375225210275	5.347334752893639	14	0.4143796451270936	-0.24994254749276706	-0.29139904967483465
Si	12.13688667169321	6.695827146144278	6.720599354525595	14	-0.5873276155921743	-0.29184539355841244	1.0240110851504884
Si	13.340695714023841	8.122911158504934	5.486849099702586	14	1.6312529398893374	-0.259334795227268	-0.9629432200284593
Si	14.780783510311696	9.460951760424086	6.779961628153262	14	0.36205508075676	-0.6526223778605269	-0.1898064509387596
Si	13.591750017468346	5.468465000175507	8.124552886225743	14	-1.0380601188408416	-0.9252901539464866	-0.43173846269607336
Si	14.821322806704742	6.889811092878284	9.363780985028084	14	0.6887767466513851	0.10172912442857494	1.0996648307537176
Si	10.908663025039262	8.127901360586995	8.190969712633917	14	-0.780644396624532	-0.9587656881042826	-0.39575352974581285
Si	12.150215550218592	9.407961340920746	9.564673191973414	14	0.1738928516702351	1.5699174227034811	0.016326261672408287
Si	10.953412296478739	5.396749131816998	10.756339951062023	14	0.3172605125375441	-0.7881651367964972	0.9818544709897444
Si	12.405512338169345	6.650232628749533	12.102865521993673	14	-0.5428184400634948	0.7242544005219804	0.46256575837411673
Si	13.646024560634498	8.279184131850059	10.859378683955173	14	-0.3581182042905493	-1.502267270851341	-0.05557881237404498
Si	15.084649431230542	9.430295339815713	12.174061238995094	14	-0.5063910198876369	0.990022615481323	0.0026333260688956627
Si	13.61835901032938	5.3156380295710886	13.591132337731805	14	0.6231168874275714	0.1856127210510661	-0.7988660771389534
Si	14.983366209167563	6.78244860182934	14.825955404728807	14	-0.1036713373874148	-0.45641284623247036	0.4749952528233087
Si	10.97533992712598	7.986046332671154	13.538483267556554	14	-1.003134481282482	-0.598173566274687	-0.44573196051151126
Si	12.122891349241561	9.43036035873535	14.860805545653703	14	0.6181839647603354	0.9913151101257612	0.059556569414846064
Si	10.836085655995577	10.889986340373822	-0.031664213862732	14	0.06119899149335667	-0.508374627642131	-0.6164158156316697
Si	12.208813851540535	11.945129622956738	1.533910097322603	14	0.052867838924480846	-0.06493300774980773	-0.6072534247127899
Si	13.232536741209357	13.358234567595654	-0.005640391278422999	14	-0.4254387404406465	-0.2684637617769858	0.36693221043854896
Si	14.576510319545292	14.872508951188184	1.4442002429548317	14	1.349700966480138	-0.47804844039098454	-2.880309788386003
Si	13.571561642921367	10.698196782177531	2.92195024844184	14	-0.2774243209282339	-0.1306725712385459	-0.48210075948606984
Si	14.855360211134188	12.127166343207628	4.11535626363071	14	0.6651308052430472	-0.13490152526912547	0.19985124520351413
Si	10.921000365040193	13.49027173864646	2.5882568981399787	14	-0.009607706360329342	0.790226906152724	0.8105448088346622
Si	12.120306847186031	14.87450828296699	4.074800712507756	14	0.28429380012260547	0.6235246647313469	0.03972203453309574
Si	10.831290510672423	10.820659917311936	5.601493709750763	14	-0.4143639613846407	1.0373533219883329	-0.6873469549828507
Si	12.201011581184215	12.25848830614244	6.832301858460243	14	0.16156722987597721	-0.4705377275297679	0.13323802012698965
Si	13.537459219572288	13.489589039990282	5.367945750418251	14	-0.14633523062782397	1.0992999909087884	0.741473092851012
Si	14.961584871089503	14.91626668410321	6.729669493814817	14	-0.9362417770576574	-0.13295674120496545	0.15386599811053767
Si	13.499992067132041	10.748488916515976	8.089719000030755	14	-0.32358080363553215	1.1396619735560691	1.352111891938841
Si	14.945866547267501	12.266648180556757	9.369518904685961	14	-0.94653134054889	-0.13150278114642172	-0.6510498898467243
Si	10.858273362321363	13.529478147186968	8.265757724945225	14	0.07500017063084753	0.7318625582748305	-0.9633790223802244
Si	12.115235371454423	15.015404281818203	9.541298890364272	14	0.4524253189914527	0.7661009393811143	-0.7064662083645359
Si	10.731421450111526	10.865961849568318	10.845952277050339	14	0.010211659000032127	-1.129434630813584	0.2013699971161256
Si	12.270809391413461	12.120599432324394	12.049078620724792	14	-0.06533949950092313	0.7986601316028097	-0.37046902291694467
Si	13.50293417324557	13.622796551594536	10.701203907210695	14	0.10686027931599446	-1.1331910156863205	-0.10017874792052565
Si	14.733319698977416	14.822379364148828	12.185634606690302	14	-0.16552133274783293	0.5788373116039812	0.46966740837889787
Si	13.55722497114163	10.783485350010054	13.420734004095758	14	-0.5665106613675953	-0.8561050522182181	-0.06418918698068887
Si	14.938844503946813	12.0850340832835	14.807343738983002	14	-0.062475288174278165	2.7477996481751474	1.6769185985910193
Si	11.000290937536295	13.612393524452777	13.319255725273871	14	-1.0313557046080235	-1.1441328685972747	0.2988421424661314
Si	11.986026523407782	14.923987680809985	14.865681964626404	14	1.757519407940746	0.08882089016877151	-0.25699380383327314
H	14.392981415088757	15.049719642129093	2.8164277928185935	1	-0.3864309589654879	0.6297415973954651	3.513511836431855
H	14.966124817153087	10.695945502085133	14.501377706959913	1	0.31710058978663097	-2.8133592342914753	-0.6591992652694656
H	-1.091989504340638	12.764156698881521	12.448026584246335	1	-0.13777190724853877	0.009627760981826498	0.13449169108109385
H	15.052617860471868	6.824678390132921	1.2387729663648899	1	0.32652060545858946	0.3229573105953963	0.43175723176491043
H	6.659195486821356	4.016202411185811	12.220224671936654	1	-0.03817320068823853	-0.05230913773841266	0.14374792734415895
H	17.674522049523475	4.0896250261847635	6.8020192966397754	1	0.039646701147215385	0.03823619276858216	0.07589311550853495
H	4.063542686572783	12.094900704338263	1.4955164252775448	1	-0.02347676267827211	-0.04039617834803856	0.05880683510349089
