228
config_type=divacancy dft_energy=-23082.888581570005 dft_virial="-81.79875916705375 -18.777231778738955 15.534751343593726 -18.77723177873895 -89.12290391667096 39.0082609822271 15.534751343593722 39.0082609822271 -105.90264167278704" pbc="T T T" Lattice="16.249967316 0.0 0.0 0.0 16.249967316 0.0 0.0 0.0 16.249967316" Properties=species:S:1:pos:R:3:Z:I:1:dft_force:R:3
Si	1.2528074801943359	1.2913361527005718	1.313306108511804	14	-2.5622182946089875	0.7282354999996977	-0.8912384350864456
Si	2.636215947707364	2.601408517716492	-0.034157431298232004	14	1.1333331978105246	0.7939472955509782	-0.10934525260791757
Si	4.153117896721332	3.930509594459448	1.420848392209092	14	0.1900615045865183	-1.3417115138083098	-0.2377125708164187
Si	2.71228204471356	-0.0071824855536719995	2.7494944698671997	14	1.9403926162731941	-6.6602614124868245	5.934714260209874
Si	4.00594194274032	1.172938890836196	4.246327709245908	14	1.5248685721681023	-0.33502119386806306	-1.335425161300548
Si	-0.08196483514190399	2.953204060140576	3.111868741014	14	-0.015621007483091672	-0.6643131937512401	-0.8897641632958726
Si	1.704020322657708	4.147024158977832	3.9226446102785038	14	-1.0443248740639142	-0.7136480768553054	1.8797695523715505
Si	-0.0011374977121199998	0.06496736932936799	5.341770505952099	14	1.271111275711832	0.24034126889573812	-0.3876640610770309
Si	1.494054494967672	1.4239196360318158	6.643392887963699	14	-1.067604432964131	-1.1863954122972087	0.28383974292306735
Si	2.8617979939880756	2.65784465420496	5.402350384106148	14	-0.3125885570603031	2.0551706144225843	-0.27303930080472133
Si	4.192052818410468	4.022776908879695	6.733076457580704	14	-0.5755784356106936	0.4812924039734154	-0.23228162504866992
Si	2.85008176755324	0.039292420970088	7.92096531834762	14	-0.19373458564688184	-0.25662947820940823	0.7522719923061659
Si	4.015090674339228	1.3802722238210399	9.481579679441626	14	-0.3421207869885879	0.5309743862957007	-0.5629512231623823
Si	0.04171366610017199	2.583631053472788	7.990141429211831	14	0.893712609736024	2.621188394900307	-1.246199836264917
Si	1.3795084753571878	4.141677919730868	9.26378136750528	14	-0.7542777115664134	-1.4105281761442015	1.4217163409448255
Si	0.13219348411565998	0.145550957249412	10.565826248667095	14	-2.362992342219333	0.018648998218630062	2.424836424037515
Si	1.3030523791354078	1.386154711989432	12.043809525959244	14	-0.27177740231359265	0.13425720627589635	2.1782507116507333
Si	2.6466159267896043	2.774568169435788	10.92989051641476	14	1.1193199024841216	1.0303660861702983	-1.6525020969182331
Si	4.166426619953136	4.153215396525228	12.197452966932024	14	-3.12548602083628	-0.5812729196737576	1.2662778548204856
Si	2.424430123677936	0.002827494312984	13.65317378900125	14	1.0761191624528654	0.09691781504298183	0.028482961847132435
Si	4.138444176234984	1.3695959952944279	14.859766362148882	14	-0.7310804280364416	-0.9688313083221304	0.4804028015326441
Si	-0.0308749379004	2.8374230430140757	13.538432769782975	14	-0.05157534428004241	-0.7534305323634247	-0.5373833805272338
Si	1.393467197281632	4.1107867318631515	14.928666223568722	14	0.17424740709388353	-0.27884614217027576	-0.5908256043802357
Si	0.268416960125688	5.333629272326784	0.249095748986964	14	0.15615736717185363	0.9397202254452859	-0.5014853509367942
Si	1.5200381927059559	6.875767420582499	1.4799332733700679	14	-0.010640005146368795	-0.17150635171207368	-0.6544018398526013
Si	2.826893064193308	7.99433392077936	-0.176815894365396	14	-1.5843819470135703	0.08978068378478278	0.2908202938672693
Si	3.8544272474859356	9.31033752386562	1.271218693163364	14	1.7648072059707054	1.7346396559178119	1.8413037598978792
Si	2.920330376260308	5.422955342662836	2.595054780495936	14	0.6136225668118607	0.9250155598982949	0.42159622353968523
Si	4.07248555889934	6.684992804292659	4.233327735393107	14	1.3673168945811325	0.19164170591628132	-0.20963558649933764
Si	-0.031541186560356	8.005123899077184	2.79369438096672	14	-0.1565525460595604	1.6358361922330336	-0.49342956374770636
Si	1.217025052164504	9.569654502294346	4.157245388419596	14	0.15416604610139895	0.09545305634209347	-0.9584556128026729
Si	-0.06243237442807199	5.310879318084384	5.316989305795199	14	0.9303382621320655	-0.6836196236002321	0.08858152026346572
Si	1.3239660870711	6.699812774484852	6.5897192459189515	14	-1.1732004997942087	-0.26318091167567753	2.2610035361534235
Si	2.4973112270901963	8.061543785598335	5.341559256376992	14	2.1784378881180397	1.223034691551447	0.45014140613556525
Si	4.02341065760502	9.3331687279446	7.109263200946104	14	-0.6868448181138258	-0.45658408184679233	-1.1708227415941357
Si	2.745724477449888	5.37207669499644	8.010226388814408	14	0.9317819377693285	0.9706375098095346	-0.4702132540383653
Si	4.1697253633182845	6.579644266183031	9.565445760759502	14	-1.8713196147368838	1.4394317708217097	-0.8669134647630565
Si	-0.043046163420083994	8.285192085768443	8.027288854496208	14	0.8688862738752062	-2.3520116656180448	0.33024819395174015
Si	1.058734120539348	9.36326366741383	9.728010433788766	14	0.7934197047392838	1.3319387424864269	-0.6893398187164974
Si	0.033084933455376	5.479212729510828	10.701025976736215	14	-1.2678310595443867	-0.7811159373402472	-0.18513398124045452
Si	1.28667241208088	6.866391189441168	11.975917162512996	14	-0.7514528381511668	-0.4696859203372029	2.8415398341529583
Si	2.639742190614936	8.092126224087048	10.804700768212296	14	2.33331613039312	0.7223340419583617	-0.7392035781849173
Si	3.9993444560100238	9.463428465949656	12.303890252851822	14	0.9719855403288882	-1.8863358982486769	-1.2582426364739585
Si	2.612474745458688	5.645693644663248	13.587280171534871	14	-0.5410734308827103	-1.9946768771185444	-1.9170251255710282
Si	4.112265478888908	6.476326973987904	14.936173708468717	14	0.45285520780098154	1.568524912062089	0.34162636343552344
Si	0.009961229964708	8.125292407379003	13.67324249863651	14	0.6453309802831189	0.5348796381664735	-0.5548468420827436
Si	1.419483394954548	9.608979423199068	14.986402357442472	14	-0.2559939009742676	-1.1994635693079254	-0.08363651340122492
Si	0.044281160936099996	10.877923120938192	0.202035843639828	14	0.15446557987119622	-0.4288706518219802	-1.5154184745638983
Si	1.3797197249322959	12.220446670684163	1.3958721924444	14	0.3320230279542384	1.1308106863809273	-0.0846639270871561
Si	2.683259603087184	13.57676644268142	-0.06590986743369599	14	-0.21877226636501587	-0.3300229651256952	-0.4495587936700197
Si	4.09182302000538	14.78831525586043	1.3604147637608879	14	0.29787103598671144	-0.20996365953818855	1.0389836598718387
Si	2.633989702185072	10.93752800105328	2.744635729639716	14	1.359893856411333	-1.3732728600552555	0.5927619037968392
Si	4.18160408942628	12.079071955034964	4.3455175097427725	14	-9.701136471005544	-6.104714458425405	4.6532974801538245
Si	-0.14015596810050002	13.724169896204856	2.46731378742486	14	0.042783706748328064	0.16959216380122338	-0.7111859864007318
Si	1.259079967578312	14.88196381750254	3.9013246531599117	14	-0.12642844768657743	0.13092248267566428	1.1024963890427966
Si	-0.234470778402564	10.920059286188579	5.4144403597892525	14	1.795930950092162	-1.0389456075131005	0.3628582940587743
Si	1.320358594326948	12.231577898295624	6.615800443461132	14	-4.615273917795218	3.198098148845774	-4.7084237779915235
Si	2.650174669631808	13.606455132967751	5.4570315241244876	14	0.7018405327830574	-0.10758815923212837	-1.8305753087284975
Si	4.1696116135470715	14.779881522823429	6.621357932283204	14	-0.29309572207560036	0.025280907281420018	1.9907664830371312
Si	2.66036339913894	10.79274079226772	8.52587035168572	14	1.9364025179268565	-2.345121103360048	1.6043041565867375
Si	4.310937579294324	12.104064404766971	9.707714224611085	14	-0.3720710786419289	0.17853961031533871	-0.5596828340794101
Si	0.002632494705192	13.802592238471872	8.019716369726952	14	1.613093737234196	-0.9391972626231677	1.1274978171759165
Si	1.422717138450432	15.057138465169018	9.489428413655256	14	2.053907173268264	-1.7312835921434229	-2.2432577672337612
Si	-0.022684954373136	10.927241771742251	11.104642664931022	14	0.8156391969160035	-0.13206868142738631	0.43295562395463144
Si	1.6111030095448198	12.3816625964262	12.171339269455212	14	-0.3966207635702988	-0.2787605243631148	0.21294022816732397
Si	3.0247851661675558	13.73634112172454	10.718169692254595	14	-1.5990914976606694	-0.7806379688612317	0.3747895082969214
Si	4.09019802327378	14.898928783380443	12.317572725331894	14	0.2681986808184785	1.5226563931506472	0.18008458750221568
Si	2.85869425023072	10.781024565832883	13.630521334562747	14	-1.1541406389454192	2.33172487331048	0.21119830431292366
Si	4.284856381752143	12.203497954773576	14.840575150748688	14	-0.7073342135206179	0.34758515712549864	0.16699689009106594
Si	0.0025349949012959997	13.828868435621844	13.351346896073867	14	1.178083543018234	-1.565312830185628	0.8310773988108326
Si	0.858908272454496	14.999386081327955	15.186553204873643	14	3.2831773094421335	-0.45371010031993075	-1.6822166182137168
Si	5.504302679046732	-0.17696214407124	0.032272435089575995	14	0.03729465400034393	0.6652074241815876	-1.050274668885269
Si	6.779453864300568	1.284592416264432	1.4239033860644998	14	0.46092256496401013	-0.1288010636760101	-0.7782337282763612
Si	8.088567481244844	2.7124445443867202	0.039958669630044	14	-1.5070901502108747	-0.42459258967978575	-0.6292708280113458
Si	9.339619964969051	4.04445436527924	1.256301223167276	14	1.167996582626229	0.9300346145937559	2.0963730913990215
Si	8.435293033866335	0.08108733690683999	2.5614660980537636	14	-1.0547342510630657	-0.16368479221765117	1.0470880409514776
Si	9.730025429735951	1.1005452864434158	4.15381664531592	14	-0.11902957790678734	2.313301875249491	-1.4609940884785997
Si	5.508885169829844	2.485611250622676	2.891470434307092	14	-0.8691747518921269	1.0964766601567342	0.4750515600298199
Si	6.901458618909095	3.9357583339025157	4.298376354559055	14	0.1814583290747708	-1.1031319662779373	-1.3347569310278413
Si	5.510087667411228	-0.286714423323504	5.269831900644167	14	-0.9130334377748088	2.068639606752712	0.8695858716328185
Si	6.66053660348208	1.4085471669508798	6.507738160809732	14	-0.11557684057236049	-0.6575347316852017	0.2539850963876359
Si	8.403459347894291	2.47706376781446	5.453749030726656	14	-0.8928659447540994	1.2124111414791272	-0.18120893185871648
Si	9.189340267230683	4.197545307363276	6.867008688199176	14	2.1689247984334923	-2.1115541827618363	-1.1800344977351624
Si	8.155566096488712	0.20265334239783597	7.789291833186072	14	0.5885676596880817	-0.8053473194299827	0.1348953546163571
Si	9.414142315080227	1.4816070200036158	9.280730083415868	14	-0.34190044326265123	-0.3535794320688919	0.9329775017431976
Si	5.403959130870432	2.654773410382236	8.027028855019152	14	0.5187462093930765	0.10944861104178755	1.2410064606287499
Si	6.7173627391861315	4.214039024189016	9.46677595921675	14	-1.2099799042883952	-0.8066853226385879	-0.4983815125943115
Si	5.422142844297036	0.117844762975632	10.727854672774932	14	0.17816757137551328	-1.313809107542467	0.4637561801373454
Si	6.522330631459499	1.620251741143728	12.113960634862416	14	0.27341931017103915	-1.1416646074899324	1.4553404849901261
Si	7.880551649632728	2.727053265003804	10.737718402935744	14	2.3136749426314447	0.40060314860067614	-0.4966411314031033
Si	9.402946087599505	4.135925431301004	11.970424673560188	14	0.3720124574406295	-0.49588651199163986	-0.5483337180857444
Si	8.058570041579507	-0.0020312459145	13.291644516154884	14	-0.04898932654903747	0.5932339587336185	0.38532744056208035
Si	9.27775633939704	1.27960367629842	14.99798858413878	14	0.5915115752796513	0.1937960350640334	-2.059987066018818
Si	5.357142975033035	3.0268001621147396	13.722431149702043	14	1.3675799186553836	-0.7454187110753113	0.3831926518147614
Si	6.972324726374171	4.404439891230587	15.059055961312307	14	-0.420325069069404	-1.9915879511869186	-0.937881370920316
Si	5.429617829262396	5.378137932805308	0.128423491698348	14	0.04541009083285933	-0.4043353650834031	0.5159563030101838
Si	6.754396414699296	6.720905232061019	1.427462128906704	14	-0.4356753391622841	1.4967285957706777	0.08156445962371758
Si	8.235629685454644	7.879332902084028	-0.08544232814752799	14	-0.3638607680231	1.3826159996781417	0.4910242947207078
Si	9.56586825990972	9.42725603870424	1.320309844425	14	-0.8785451452314065	0.4641109926715258	-0.6292433171844203
Si	7.9409040282443515	5.388131662704647	2.802859362532944	14	1.4278779948445606	-0.8812332358436212	-0.1914555578911026
Si	9.41490606354408	6.698870276380524	4.098306756964464	14	-1.331748480692736	1.6933561891237905	-0.8497613640618167
Si	5.411060366587524	8.165397326714892	2.8500167676839756	14	-0.5170117417441046	-0.39418695527424663	-0.5784040803575363
Si	6.829422513797268	9.39150611060904	4.2764226487151396	14	-1.3015799021977146	-0.3549953397686974	0.38703748271051086
Si	5.821063291937519	5.326284287099952	5.699091037263624	14	-1.2801181147588425	1.288289601687337	0.43977265260047205
Si	7.231089205914156	6.232821213757643	7.567707278865096	14	-4.009899971071456	3.099496259818095	-3.525040158466335
Si	7.985445188657508	7.970673968367263	5.72762597987052	14	0.7920706457778021	-0.9936409319983673	-0.33429022862554497
Si	9.527940836194174	9.497829646757626	6.563004299651448	14	-0.17573119197414097	-0.6748087027786166	2.6276680945281448
Si	9.48274967708838	7.015663389205944	9.477858436926265	14	0.9094056081680798	1.2358105138872626	1.6507102936206222
Si	8.079142500201563	8.468117967844655	10.953062969807375	14	0.43764274895326144	-2.966030953980804	-0.24405111676217978
Si	5.596017494578235	7.830615500070659	8.22394595895444	14	-0.4654909048968493	0.632467226145354	-0.05024762549271794
Si	6.761838899730024	9.437558517982584	9.455254732389708	14	-0.11574859040774636	0.061655619798214954	-0.9849523957899909
Si	5.403585381622164	5.437547813312603	10.998757877899967	14	2.006029078438594	0.7063595074937498	-0.5823525267976878
Si	6.917968585702152	6.7544939145031915	12.221941667677235	14	-1.1101204876486317	1.375503551031016	-0.15260101429302483
Si	9.193695258471372	9.875153887835147	12.28083154923042	14	1.2615364794996002	1.1813938411179246	-0.7494175511797375
Si	8.284769586618227	5.406429125902464	13.442427962880046	14	-0.2326220393930575	0.5214206731470944	0.7135460039740956
Si	9.667300555896192	6.719052735786995	14.77317028632192	14	0.045711167265848666	-0.5981645674060665	0.6698287288840218
Si	5.326365536936532	7.97475271016358	13.677613739844515	14	0.627344555905491	0.09037692310852513	-1.4337514278379069
Si	6.840196242127775	9.317260009942235	14.789891502690082	14	-0.6851617725712569	-0.29172095206091725	1.6922426434096343
Si	5.3808029274451314	10.677739773572387	-0.03997491959736	14	-0.0028662682109010782	-0.6850553288110027	0.28996231602193595
Si	6.921332328936564	11.789270037921419	1.283113669238676	14	-0.19701994402496706	1.4387496565802746	1.0621218079794474
Si	8.133888640089168	13.617423860906051	0.22413579918958798	14	0.2279094604517581	-0.9658989627045015	-0.8962081245597597
Si	9.662848064851607	14.732122868881703	1.5847293125909518	14	0.30011509671013664	0.2231367176459672	-0.9955353223982524
Si	8.16544607661684	10.586707456668156	2.90126916459864	14	0.9331340820571945	0.7041632693292792	-0.9819573152025505
Si	9.354196185651505	12.214466682711876	4.152240398486268	14	1.5249613890701597	-0.23027513445682637	-0.4466344184788832
Si	5.875289432871012	13.57879768859592	2.78061315727734	14	9.854854887670703	9.2095208220612	-14.060243195327915
Si	7.014395891755296	15.02983852007814	4.018681917116064	14	1.5183474777446109	-0.18228185410881426	-0.6348946066781058
Si	5.34534549876162	10.695565987718041	5.650779884433156	14	1.2694667967490652	-0.3305482419426014	0.7628091532397288
Si	6.782443858286712	12.235672890059256	6.882121157803056	14	-0.5876484895361288	-1.4356051947737336	0.2055112764552881
Si	7.96362148255212	13.491389114403155	5.4534402813476515	14	1.3472273060516238	0.802536844204529	-0.24400997907705743
Si	9.533823324362569	14.772536537596595	6.709140255724235	14	-0.5393266219282018	-0.10854718151654362	0.954274224220516
Si	8.168403570668351	10.820674486083922	8.182931041448855	14	0.9102422458392561	-0.14524945285112542	-0.808335200922527
Si	9.717090455752414	12.16440053341128	9.420691051908577	14	-1.462747582306941	0.3481613418277439	-0.023011392615325307
Si	5.45462652896172	13.541764013082755	8.199814757490179	14	-0.8974065167494809	-0.2676314949848539	-0.6223555831422757
Si	6.897818626230312	15.038662252330727	9.081261734611967	14	-0.7254584491434056	0.3819379524185292	2.1038377814750078
Si	5.659262367372108	10.592671194673128	11.032330310374824	14	-2.565931484912345	-0.35615310849436016	-0.6398226442452336
Si	6.748318926923112	12.122768117147686	12.119323124076695	14	1.9968980550046205	0.4011405096125871	-0.6050875255910971
Si	7.900701609104568	13.416818014390032	10.48642890836112	14	1.3057286377423056	0.1605858389752767	0.268745812030606
Si	9.29680130109139	14.757554067731244	11.842586180685215	14	0.3305353864160007	0.7404004277114463	0.7543712998000669
Si	7.870606669635336	11.074547725461791	13.834718423855604	14	1.9093909996544447	0.17790171908540997	0.2199513752648358
Si	9.634898121068087	12.312795234940992	15.04446349066254	14	-1.7627042989293564	0.182642065964167	-0.2724152935435214
Si	5.657556120803928	13.497499102113972	13.370960606624278	14	-2.7456856853809217	0.7371230397598535	1.1163988697299014
Si	6.887418647148071	14.786706509096147	14.712249158854236	14	0.4975047656801411	1.041296626217844	1.7468920012104454
Si	10.672409784292741	0.031053687540875997	0.09317731258994401	14	1.440962092708262	-0.32668232798322683	-0.1349197801168985
Si	12.246674117932187	1.2554399748995277	1.488594505949496	14	-0.5530624949905608	1.374374321574407	-1.1697379922595652
Si	13.70489743496808	2.785130648191188	0.075594847954032	14	-1.593597045591513	-1.1225630947349565	-0.9294733423023677
Si	15.112550853716579	4.029943144466052	1.3625597594466	14	-1.3903516842548713	-0.0499552908178171	0.8436495896052927
Si	13.607137631595023	-0.23331703072312798	2.595006030593988	14	-0.5387190697410507	0.5569060403336502	1.6656455873148304
Si	14.851170129438719	1.2417412524521398	3.9621482808236994	14	-0.08718566718515733	-0.06450311894027896	-0.00932308500138895
Si	10.861673153622192	2.8884804403209476	2.72942576023194	14	-0.09518977515731032	-1.7150956559372386	0.24054387199496577
Si	12.247454116363356	4.100484252584808	4.1526141477345355	14	-0.6303370653876114	-0.5994622042611452	0.4204510532300913
Si	10.887006852667835	0.0005199989541119999	5.6728635900156	14	1.101405983276522	-0.596366850566219	-0.05859086225659845
Si	12.197729216376397	1.421498390901732	6.9305785603393675	14	-0.4208457178967339	-0.382474284988312	0.40163287628139543
Si	13.531396533935148	2.49770122630578	5.47778273238702	14	-0.6053284381595949	0.44052778623299954	-1.9006710959611621
Si	14.776842778935336	3.9324108406354195	6.625079174798568	14	1.119744134861946	1.0457880901016106	1.9423852228963085
Si	13.663931267364443	0.160890926395716	8.248369659830386	14	-0.6336342508501692	0.418103119851732	0.7632027894642436
Si	15.060973457455594	1.6376554561391639	9.472690947319776	14	-2.0740224728509746	-1.214945479993197	0.8219751717564445
Si	10.828734469872659	2.845645526475972	8.111301185519928	14	-0.11545111352220523	1.7033696159036391	0.7015507692134768
Si	12.170819270501099	4.3373437761828235	9.636750617342111	14	-1.9983201333571943	-2.096830748146008	-0.27395255741443786
Si	10.725563427383374	0.01616871747942	10.635603608321999	14	0.2756746837578731	0.4396410120080805	0.9458749373606563
Si	12.017013329855159	1.581544318997016	12.184599242785067	14	0.6160098381016182	-1.4207007543433672	-1.9736123254516351
Si	13.492120362932376	2.9140253889417003	10.746525885221015	14	0.1981319470759311	-1.244168148840936	1.1358459390399054
Si	14.74863283567476	4.1797028432503085	12.200329211146956	14	1.2754687850084188	0.378097235291292	0.06615942498751835
Si	13.347446903918026	0.0946560596157	13.391955564396552	14	0.9457972899799879	0.822053590468709	-0.10731253674180852
Si	14.81542020134352	1.3804022235595679	14.805540221215391	14	0.10823684910440175	-0.5938294267257647	0.5382518999043798
Si	10.613552402674188	2.7982931217171476	13.401689294818835	14	-0.2980859803914759	-0.16919981312936883	1.8916809690987322
Si	12.133541845478197	4.037076880117776	14.77536403190958	14	0.1332251646003889	-0.9569826265647599	1.065397653267848
Si	10.909903056616079	5.27628313766862	0.039422420708616	14	-0.5634189072201173	0.8241354144464328	-0.6175607288307314
Si	12.281497797890374	6.695165283832476	1.322568589881924	14	-2.233341528235014	0.691137278445813	0.3709693600122454
Si	13.648152549100606	7.979205201208163	0.111247276245336	14	-0.5748495272524317	0.8266826084871034	-1.7976661890727301
Si	14.818328945493084	9.483952174669763	1.235127515754528	14	0.8470897285236508	0.2433816009368132	2.7832572474242454
Si	13.411813024456704	5.306816826255384	2.571736077397476	14	2.4929527172841977	-0.3332160208227871	1.5165839566055213
Si	14.84470264244695	6.707515258992636	4.124550454179804	14	-0.8522761621754537	-0.4485632616900584	-1.304228140677467
Si	10.759948358224031	8.0981712119286	2.683779602041296	14	0.8678213220516009	-0.7620041401639905	0.3206291747280022
Si	11.944814725070172	9.614796911498196	4.045786862599152	14	1.4004620417052895	-0.5530367839373593	0.7074334581859756
Si	10.575381229448903	5.377455434178036	5.398986640871736	14	1.3664805140204883	-1.1211708412040962	0.7948492392972861
Si	11.975852162643731	6.524881876328112	6.844518733433832	14	0.1883563475381961	1.549239051055658	-0.18621333125385267
Si	13.313403222391008	7.884532891625148	5.4113203660645794	14	-0.2461167427763867	1.2893710085849914	-0.1634590491705422
Si	14.881362568711847	9.2957938031178	6.5832680088945	14	-1.5909981723339073	0.7412008127976083	-0.10316148720242942
Si	13.371058106428176	5.419169100278208	8.248922158719132	14	2.5399057284196784	0.40711035905543896	-2.236148661023552
Si	14.81098396026625	6.872354927446139	9.418269806778492	14	0.6670519351382618	0.41673889136886144	-0.010724851621933682
Si	11.051781521252076	8.208979739056403	8.260459635513492	14	-0.6998862356292129	0.7624368571893714	-1.119678057455218
Si	12.431647495890216	9.747347894894807	9.579648232193687	14	-0.3508640877402835	-0.5930388118398191	-0.9483815079372685
Si	10.891020594594886	5.70568852399392	10.906214314035347	14	-1.1677626120420956	-0.3462620663277505	0.05094259526075397
Si	12.310438989680172	6.9537672636993	12.239442882476569	14	0.9670060806553573	-0.24962013088562052	-0.3950860708047024
Si	13.708667427385391	8.390069374825908	10.895213086162414	14	-0.5919052115041659	-1.4073765152427637	-0.056078892358813776
Si	14.80976521271755	9.564974511707339	12.487563633424571	14	0.7971652909696756	0.6728137821607137	0.10740329675960973
Si	13.534012778673024	5.476206485557368	13.738469867442936	14	1.002091383854098	1.062463507876495	-0.6740060036976664
Si	15.206134415489425	6.7192152354601555	15.188324451311088	14	-1.2716427231815064	-0.47541537143262086	-1.0315156273589368
Si	10.9260717740955	8.1875460321666	13.517454061978018	14	-0.46503967591316325	0.8090108874006617	0.43396606834544965
Si	12.251727857767463	9.444838503340153	14.943762443205289	14	0.4624842543354681	1.0413333930239221	1.0076598837564748
Si	10.964957945882688	11.044225286450136	0.11253102366329999	14	0.85318556212719	-1.418332766343511	0.565967901034512
Si	12.484849888882799	12.40728879488353	1.530974420709624	14	-0.3385356377301735	-0.6279973595462766	-0.3140070358654288
Si	13.761739820639448	13.798367246969711	0.075546098052084	14	0.22559700832681692	0.23010338462144048	-1.8208691290344063
Si	15.574862423856779	15.776557018182972	0.268969459014432	14	-1.1094489149390092	1.2727758092960957	-0.11894498854175446
Si	13.688273718403812	10.884504357701172	2.899059169043664	14	-0.7391457283152141	-0.6382221311834415	-0.8962772872928718
Si	15.062029705331136	12.385497588712775	4.041984370247207	14	-0.6926174637786223	0.10024559665884951	-0.5925019650489723
Si	11.113937646235776	13.588238919606516	3.0012064635920397	14	-0.8775843231732672	-0.2058596612261682	0.5322051744124556
Si	12.401536306453668	14.992463595251339	4.457869783765596	14	0.4289781240243624	-0.7893241910748199	-1.0408865349192802
Si	10.858358160289727	11.048092778671345	5.632401171398759	14	-0.3216779285880906	-0.3376005267252356	-1.9502463774126615
Si	12.413853781679196	12.2297254020216	6.7836138559334636	14	0.21935924970960566	0.049660127927064104	1.3757231234253566
Si	13.916894508572616	13.514382818155294	5.654029877896356	14	-1.2416736624593283	1.5040991833919461	-0.7715262287171589
Si	14.971712386988807	15.234848107736795	6.8460462303615355	14	-0.25471066230898165	-1.1390299958683767	-0.377924457013778
Si	13.902773286975012	10.862875651203575	8.054848799064144	14	-0.9999794779441284	-0.050300333151780965	0.4547881647806689
Si	15.26091305531166	12.226020409473552	9.47438094392064	14	-1.2757256384299016	0.1771517276635228	-0.5058780843762674
Si	11.040130294686504	13.597046401891788	8.184686037918983	14	-0.005451514610309971	0.36731453379965495	-0.6328603481488048
Si	12.387707584267753	14.963359903788383	9.60148818826639	14	-0.5410937426147395	-0.08487810016032442	-0.6696652065856603
Si	10.986537902478336	10.99346038855495	10.885853104988401	14	-0.3247298306031064	-0.645088267940897	1.2277009905969838
Si	12.30585649889706	12.334488941307852	12.299697761284294	14	-0.6479959309474524	-0.46185381931096775	0.5036391658634823
Si	13.651581292204284	13.395920556421656	10.790400796974216	14	0.25006518921653814	0.6134392470025342	-0.37802858677924395
Si	14.752516577863284	14.941682447388839	12.108809395223243	14	0.5139966065351668	1.3257647472811553	-1.1023585777976368
Si	13.63266633024846	11.094648935031683	13.832313428692835	14	-0.7533832240255339	-0.9798217551236353	-0.41288480449395953
Si	15.249895577471412	12.317930224612848	14.909686261743635	14	-1.0636559865239796	0.7308055768777176	0.5485931426125473
Si	10.698588481638815	13.666222512755999	13.490462866266144	14	0.3882749557010981	0.051044925252495855	-0.7300427299292297
Si	12.079608203956392	15.07935217048999	14.740849101330395	14	-0.21207402278496607	-0.8689983740671647	1.9340412148008326
H	2.6187797327772957	0.8379181896724188	1.845232538633748	1	0.22349204440121168	5.098526275354183	-5.545399806627839
H	0.5076034790433551	0.36056239979106597	2.279093665997095	1	0.12359328985005016	-0.04201983135771207	0.3363692243874167
H	0.7907461595508024	12.865619123031312	3.424167112879814	1	0.40417055723238154	-0.3958867130013965	0.3463556545614038
H	1.8849978336527315	11.70620182999876	7.637583763320627	1	2.172625904541845	-1.6410102845792995	4.288807562658883
H	8.147301363111794	4.993733580968207	7.707544747606202	1	0.266748834528447	-2.6140957437641466	-1.6727189551610897
H	5.641676652742733	3.133606322292613	10.47837542455931	1	0.3877028847673652	0.4846471821951446	-0.46773547984133856
H	5.077079663331971	12.801270877456682	3.728831250100572	1	-26.93311164434218	-36.61219368813255	60.191639885128076
H	5.209336522320163	12.971768784529619	3.460994413808065	1	23.40735209060726	32.83069785817645	-54.49080107815483
H	11.889733835855859	7.216573110110772	14.432782220953667	1	-0.17132740278179134	0.05267012092536146	0.0070610265407226695
H	-0.9162885320440236	3.8562846187501547	3.9965835865630353	1	-0.6513969890649443	0.3883456610974022	0.40712655701895584
H	8.36765579490695	5.2913939822757685	8.602786321982542	1	-0.13165807590775866	-3.2183294052784235	2.9616256221252626
H	8.289092077924284	10.890430720781316	11.297060152916512	1	0.4813026883946959	-0.35770965565517776	0.056472528583328456
H	14.417105877483921	-1.1974259665846763	1.736820881685054	1	-0.40173237805728523	-0.027896235613074645	0.4276293221734127
H	8.551613549907726	6.083771638545097	8.539567449136376	1	1.929500128584387	3.413432333176688	1.272311467675277
