224
config_type=divacancy dft_energy=-23036.087343487634 dft_virial="-43.31394092884027 -11.035017660392825 1.536521446383811 -11.035017660392826 -54.09752780709755 -0.5826808601871075 1.536521446383811 -0.5826808601871075 -47.779830535342825" pbc="T T T" Lattice="16.3199774331 0.0 0.0 0.0 16.3199774331 0.0 0.0 0.0 16.3199774331" Properties=species:S:1:pos:R:3:Z:I:1:dft_force:R:3
Si	1.4292546636585988	1.4493608758561778	1.5830541309881332	14	-0.03403115001747998	-1.0319766265428392	0.004931122893512001
Si	2.7477619604561805	2.813808909127937	0.1202945536593801	14	1.239007683352867	-1.6630731964420222	1.0424569660488268
Si	4.1501376212824646	4.090863463245444	1.5266196490244732	14	0.058383116946730484	-0.1475284806069047	-0.5637328391797074
Si	2.8351880795652975	-0.2460562997588487	2.9460007263360466	14	-0.2745423689748799	3.4739384117862646	0.16901417932525412
Si	4.23134582898957	1.5390554718284954	4.145502747691464	14	-1.0087852565551034	-0.6736270227734766	-0.29311192003911735
Si	-0.0802616490159858	2.80819483689095	2.816550665336697	14	-0.40785726515094195	-0.017689718823682813	-1.3047729578948066
Si	1.4155785225696609	4.110871755578425	3.9533676533715774	14	-0.21442761259502965	0.4741462738465958	0.9765885901835492
Si	-0.1748522382182334	0.13875244813621618	5.33547390222595	14	0.061189735514204126	0.07198092165339764	2.2089263121148877
Si	1.1802118080294928	1.489344820567273	6.84201997900771	14	0.8341853509218277	-0.215701081060099	-1.3851706499242409
Si	2.6919802775898454	2.8343884006710756	5.459097731281683	14	-0.19359343196480575	-0.9953802847474474	-0.08829124247282101
Si	3.9722498672616737	4.050047199685261	6.949274870698044	14	1.205985177952481	-0.18661673767858392	-0.11996957401183347
Si	2.51259108564521	0.09333395093989891	8.196773945684207	14	0.04029513390895674	1.8895490085672657	0.029377192277479935
Si	4.160027527606923	1.4621394181862952	9.487292481184022	14	-1.5662062892843793	-1.863981423042649	0.37329595321644743
Si	-0.0529093668381102	2.9555642331118435	8.033623131285507	14	-0.9186032232298456	-0.17847918934031526	0.5629424814042938
Si	1.3719878628458508	4.078917239764415	9.565546772975738	14	-0.24339317091075385	-0.012463690149949828	0.5166589860941802
Si	-0.1362881315438181	0.060237036705572095	10.974548344639858	14	-0.16359068976293376	0.1536024598152225	-0.026594999210547702
Si	1.2526398678775905	1.5791862963364884	12.193258979434036	14	-0.6362310672235187	-1.4587130038385643	0.4338174584579451
Si	2.7787046376693385	2.605794476765644	10.915780105903266	14	0.09966195575117588	2.1912080540221512	-0.4783826840826037
Si	4.121137021383845	4.105110803544541	12.289644766153923	14	1.0540274542105572	-0.057070824791326906	0.0020666544563350256
Si	2.757407067119143	0.23497503508177378	13.387032688710434	14	-0.43772399588137806	-1.1502981220444577	0.5094352085866921
Si	4.037937776429901	1.4749669204487117	14.871938475415902	14	1.7198450016846158	0.040181748164338206	0.7377457614683934
Si	-0.0181804548604734	2.711955929967959	13.781927182659153	14	1.0185533998874101	0.6384774419417321	0.2592044401875365
Si	1.85021216156798	4.138077157959403	14.952102204567291	14	-2.7588276331143264	0.19574313312298153	-0.9646478628557174
Si	0.2393487890338446	5.343601250987634	-0.1683568871998596	14	-0.6833316598043754	0.571019351657007	-0.24845593439665745
Si	1.3636809943324029	6.848890689507045	1.2509589102019811	14	-0.16711156138834454	-0.12084452115227985	1.1720445308422702
Si	2.6966967510680107	8.269299925396904	0.025459164795636	14	1.205831682964868	-0.21766797663001225	0.3245380261462233
Si	4.138517797350096	9.442151423604068	1.5618708002799693	14	-2.4053088791309905	1.21186915247764	-1.1506421359362935
Si	2.7883007844000014	5.4937124034172875	2.732796541150028	14	-0.7667110626735856	0.6511529911700622	-0.5327553909509672
Si	3.8198049580590867	6.763618807419097	4.377687066632177	14	0.7342403164749034	1.0232027296378339	-1.8993958277223688
Si	0.0569077613092197	8.413127886514815	2.611392229025197	14	0.0994781217207853	-1.7271574823256493	1.4254267030323313
Si	1.2183679152680804	9.699191068175393	4.330734491557148	14	-0.3829810498469132	-0.480678681133496	-1.1918235298491056
Si	0.2552281270762509	5.650694266346276	5.335930861594076	14	-2.4822880295267558	-0.530476877416252	-0.6076236638788911
Si	1.2940762905802314	6.945162236384902	6.877858649450798	14	0.7685877124467617	-0.8746566055452145	0.43009732617022284
Si	2.5735135614029723	8.294269490869548	5.539848979620661	14	0.3468930155733148	0.11690815890713314	0.4118813020875057
Si	4.031181305772598	9.591005937771374	6.8112894615011825	14	1.9238688937121984	-1.17902225357062	-0.5495321102754656
Si	2.665688793945121	5.467926839072989	8.212490083952282	14	0.41132105823824544	1.029821011842427	0.42580872249621576
Si	4.217098488690473	6.893672707583471	9.569545167446845	14	0.34316285597484397	-1.6741672587879293	-0.9410302036059013
Si	-0.0195186930099876	8.034210650473097	8.356138525318428	14	-1.8041697999800443	0.14256187645997465	-1.6116680593341735
Si	1.406423015229692	9.345700356974447	9.40314667753896	14	1.1137292910759915	0.3632236481247674	1.9190195319678671
Si	-0.047817533878983	5.326530554592611	11.107947840178019	14	1.4678653674466957	1.5490673012202725	-0.38377526428030695
Si	1.5585904848159162	6.78090166352075	12.493709763977405	14	-3.3929560504070286	1.4687279732816052	-1.5045699527760654
Si	2.8919652810550525	7.95319828249519	11.012312772420053	14	-0.8961289345158991	2.099695473693717	0.15840605588485515
Si	4.196714836876531	9.487896320349048	12.402203650510014	14	-0.3566434182789124	-0.36902663283234155	-0.31192649744036494
Si	2.9614557449651926	5.664484647277246	13.657748474370695	14	1.86392665849933	-1.6331707273476361	0.9105366373984131
Si	4.273908330135094	6.999018161914132	15.088912575388969	14	-0.3684923571468148	-0.8963513351260921	1.1183673079630068
Si	-0.0470178549847611	8.464976454819773	13.815774815855404	14	1.3018982050363488	-2.7511143171538825	0.21976111347114483
Si	1.5520788138201091	9.722936635340554	15.021103069154437	14	-1.2770582423173342	-0.17885405649599284	-0.021598570241903935
Si	-0.0012239983074825	10.92296089597383	-0.0577890400906071	14	-0.4947837649198283	0.23324064733308517	0.7208248031354348
Si	1.1625046325145794	12.346715727237473	1.3983446264003072	14	0.35438855891314247	-0.32908528301543716	0.7783322016101228
Si	2.6456315416798413	13.423573118183144	-0.0016319977433100002	14	0.4266247913248309	1.2764594318882718	-0.2161595091386814
Si	3.8889690224205644	14.948528129509443	1.3776835349700027	14	0.7284203624722163	-0.17762506815296206	-2.1628449056829377
Si	2.5541743881447485	10.932230643155831	2.8835768126544394	14	1.018081344950631	0.7646572637438512	-0.46216029506512946
Si	4.189354527054204	12.376140646549354	4.125918774771743	14	-2.084316407221251	1.266896205649981	-1.4064897410178447
Si	-0.030012438499470898	13.946122475613574	2.7503568368680438	14	-0.16966235497646345	-3.0285288678819	0.7636131378733391
Si	1.2553163441766189	15.094804087242316	4.264573303043361	14	-0.14969772216551364	0.21886971125664947	-0.8355488080731023
Si	-0.2847183262978626	10.960676363821724	5.58796027309344	14	0.27251068155089886	0.1167196968871663	-0.8020545048464691
Si	1.259233138760563	12.0838335307451	6.947300153428638	14	-0.6396514086309119	1.2882677472921158	0.5772285710051647
Si	2.344217878467917	13.540766876130236	5.4370657617469975	14	-5.436229646292224	-10.097451273042743	-5.370960852187604
Si	3.937455675374305	15.372586423131112	6.848156290522556	14	7.163749140246948	5.550811469105687	4.914541578191834
Si	2.7613238617030866	10.768492309569538	8.161718634157909	14	-0.3720422822623432	1.0805304078506435	1.2821366895456907
Si	4.035473459837503	12.155657751428171	9.712263370099306	14	-0.5218361637668304	0.7747668498626736	-1.1945496728200584
Si	-0.22981792221291422	13.615953012164528	8.243726520759235	14	0.3763136595307052	-0.5918067381704042	-1.1881077684404273
Si	1.0245029033402855	15.182621885809828	9.358087219846169	14	0.09769737417605073	-0.6272761645039752	0.9121533484237222
Si	0.0390210660425421	10.722045653794936	10.733371718133508	14	1.0934494407527915	0.8397962740619869	0.8895636170809011
Si	1.5095815925843168	12.266078718740527	12.083082811783177	14	-0.7273225005005131	-0.875775036359479	0.10165687636907877
Si	2.436344151077767	13.784832138642246	10.518290735542681	14	1.6168542358754443	-1.0933262848079566	1.7640867822600002
Si	3.958002526962577	14.871677355776972	12.147938402102316	14	-0.920119918258201	1.7785222530799714	-1.19638235669226
Si	2.88090033635541	10.959191245875312	13.6736767723454	14	0.017700517466027434	0.5507137902806055	-1.6744482805994212
Si	4.194315800193865	12.323884078808566	14.968879141368518	14	0.03155568981524141	-0.3363409422288951	0.8381366255778312
Si	0.1755539972478567	13.37048423159327	13.667083501462429	14	-1.055780690928366	1.7097284735814293	-0.06562000709135128
Si	1.5310913228411427	15.06218045235355	14.920343528482478	14	-0.4614172456276066	-0.7803116955961049	-0.08380723479448277
Si	5.522402923744677	-0.0258182042991642	0.0147206196446562	14	-1.6938752952879281	1.1267830498969154	0.16470577814028198
Si	6.780363104265459	1.606048979191371	1.1953893870422758	14	-0.6936618467596665	-2.0023110030351283	1.0673354953476437
Si	8.155076403342637	2.8245800942337826	-0.0213302105050617	14	0.36399112306283155	-0.3415206910068654	-2.5005701310162007
Si	9.488304319784875	3.667115249195003	1.4911889780172132	14	1.799328408662206	1.6085829900605277	0.03592271220151292
Si	8.118046374546934	-0.057348400699913406	2.3852463017347305	14	0.22117753539201437	1.0697235379689969	-0.15369321983302373
Si	9.55903510197993	1.287336139900361	3.680726110374209	14	-0.3082971251704439	0.3240981100259459	0.7970552476619731
Si	5.650890106075474	2.87510674436666	2.814053708789433	14	-0.436958834938102	-0.5964074740302773	-0.14938558997964765
Si	6.912913960977097	4.23576854287394	4.193679321073975	14	0.37614242391638336	-0.22526122197200557	0.2972771106577572
Si	5.466751800697807	0.09359507057882849	5.449044625182893	14	0.6926668290007691	0.4832096772106497	-0.3153275555578568
Si	6.924321625202834	1.5199610982317684	6.766001524124331	14	-0.298593002360609	-2.344310690963137	0.750554493952307
Si	8.322225612212447	2.66226159868417	5.4210721838625595	14	0.4195717352106006	0.8514719204313113	-1.2305384624282991
Si	9.725303032068354	3.8845463085361946	6.8846640800404	14	-1.7216956832940584	1.9274617562865732	-0.9547629913418761
Si	8.06796036380475	-0.0277766015911362	8.376718016861567	14	-0.2891575600567296	0.9496032971854029	-1.235972750632964
Si	9.505162856473268	1.3612003577625715	9.52097691460594	14	-0.12134562957917672	-1.605976403486962	1.727299150228789
Si	5.564328945770311	2.5830770681787687	8.244754679337522	14	-0.4116121073604862	2.2720819147568774	-1.529823606341092
Si	6.774112552908581	4.060263505558383	9.545065201297197	14	0.6432949219800936	-0.08418827260292869	0.17760784174731706
Si	5.367297858220494	0.0852066021782151	10.859802583307733	14	-0.002361046015491981	-0.3773906955493152	1.456531420974419
Si	6.957712299030956	1.4615192590438373	12.094131436505386	14	-0.8998997175784283	-1.5188462721767197	1.996998071001574
Si	8.241099004392508	2.739422451987867	10.852295393688506	14	0.8384014494258065	1.6347319024980298	-0.0765346062859119
Si	9.518349398239213	4.141194273649124	12.409351800625712	14	0.08823519237684178	-0.9283148022451089	-0.3438647677272444
Si	8.382266809188822	-0.1092132889823052	13.592044245225036	14	-0.6762827174586575	2.1121743333650556	0.022927831692420495
Si	9.707448976756542	1.3639584339487656	15.013808039241843	14	0.12819094038353898	0.28008798603990726	0.6811963568359926
Si	5.810271005687128	2.868709313212885	13.698678977772913	14	-2.5572414060407764	-1.3701561661861723	-1.3378291447748865
Si	6.838103184423766	4.330783451489448	15.005550130660694	14	0.7250200756863205	0.18466783984591167	0.8904133673892102
Si	5.496193039987118	5.440721436692012	0.2283328042665021	14	-0.6422569667623499	0.4954255128077373	-0.8319487464038309
Si	6.825602081710011	6.578697143124642	1.7152785881511092	14	-0.5545997588614774	1.3777175298221958	-1.4567386520632226
Si	7.992545748086394	7.881112942173187	0.0020073572242713003	14	-0.06325124775989886	0.9705511206707774	1.2914584889944196
Si	9.276356772861206	9.451225331056872	1.2968670067212915	14	0.48567279610735165	0.18783672715299418	-0.1604883940836431
Si	8.41963955751062	5.370545533729682	2.7232819943065305	14	0.14965684159092327	-0.24166127436710214	1.1850455820041308
Si	9.545114161229495	7.077696773119107	3.9617724417496234	14	-0.31481024916744305	-0.6056688525039827	-0.707301046261988
Si	5.324702717120103	8.09860928142411	2.806366999418443	14	1.0714142968275264	-1.0759715810074888	2.026667340843423
Si	6.722019184942126	9.718432321569018	4.008741336802085	14	-0.36575747241777323	-0.9817179452972448	-0.3632971817369236
Si	5.264074000956137	5.42587025722789	5.463699964917816	14	0.22599064455133158	-1.2133207985413954	0.5605768073992257
Si	6.7553935387928155	6.720240307401918	6.555637015011671	14	-0.21244888994064368	-0.31692241218794465	2.8156706579742887
Si	7.871761595104021	8.041424080498528	5.202547686033351	14	1.7157353469408911	2.4665248399194604	0.28474811443267567
Si	9.371893920754573	9.670810627419232	6.732871969935137	14	-0.7729027985055661	-0.42436119020097246	0.24864722463247646
Si	8.077344350828781	5.427991854294194	8.198356983495218	14	0.6866111046402243	-0.246608338113599	-1.5942030551154716
Si	9.434611594029976	6.843554056886421	9.485676803418148	14	-0.3618249668306068	0.27565720024169604	1.0512686582020383
Si	5.632513811485803	8.15873207828765	8.205505133610917	14	-0.5322974770934489	0.9768212752150226	-0.5433869114497795
Si	6.830139035436414	9.714776646624005	9.74255324821514	14	0.20260644166458486	-0.5341255329760741	-2.434383966533353
Si	5.589216911355789	5.449093585115192	10.921345218207954	14	-1.1390510789320019	0.21927054657606057	0.26310120741075294
Si	6.898944060294363	6.934423691233922	12.226633333284724	14	-0.9303919982332565	-1.0570302481139582	0.8386778432477223
Si	8.106312310772534	8.334726714926202	11.020276921407405	14	2.149843083189481	0.14533687043201046	-0.3846047028565867
Si	8.19868338304388	5.674586713308335	13.705060088949253	14	-0.25166287406247817	-1.3340012831742498	-1.32577168926552
Si	9.533771776913492	6.67139461494465	15.144775858142468	14	1.5727767489300177	0.7853533760183833	0.38891181848889883
Si	5.628515417014693	8.184028043308956	13.736965644830963	14	0.8186959840311275	1.460615878886006	-0.4533714857492673
Si	7.125922306433918	9.69101475948141	15.091262652139333	14	-1.1051474557384013	-0.34703982568709524	0.15887502549525018
Si	5.366889858784667	10.79656267075447	0.1389972477977127	14	0.8224032607922491	0.4223603560408333	-0.9401555135759869
Si	6.656673995299993	12.403933568117923	1.2369890095192477	14	0.3869102129971635	-0.25389716458568684	0.27878700674791235
Si	8.050155268425236	13.426918713556931	-0.4203536587443567	14	0.1817336944545587	-0.687820552582822	1.3347620732384817
Si	9.436080391998956	14.695992798709653	1.1362947487570205	14	-0.9679620176133883	0.14096136339818247	-0.5068525332926035
Si	8.075108513920446	11.106707521893103	2.6875575637054747	14	-0.007560592304427441	-0.4389784381670783	-0.6544059536211136
Si	9.253329284703101	12.416255151079913	4.229550631471929	14	1.831474681369485	-0.4328898036584356	-1.4087286595306296
Si	5.403593488031709	13.874787854253494	2.6013228029489746	14	-0.08407411552671414	-2.0374094188710017	0.5775075359324007
Si	6.772692714871901	15.102686636342504	3.881021193410645	14	0.08677506166552967	0.5136181398320411	1.2121982539586187
Si	5.355221074920001	10.996466074332512	5.384825513983644	14	-0.3377997873875471	-1.960081369483292	0.6213628793781664
Si	6.4744124873271325	12.413741874555216	6.644205532541105	14	1.4558500780645796	0.9740403677007503	1.6924365047507735
Si	7.954177481141176	13.797512761107765	5.439954397752656	14	-0.46831783519635206	0.23029776018364367	0.2949163217527973
Si	9.288319316319669	15.045991034739915	6.900070138737247	14	1.3442060001899176	-0.7249966786279072	-0.09142799096340165
Si	7.939554781361118	11.220017125211115	8.184289162947886	14	0.48377583460214635	-1.3044140315921138	-0.5505374124556435
Si	9.437239110396705	12.210705035310019	9.716327044480149	14	-0.5285997134220118	0.47419846728459475	-1.2724431082676686
Si	5.237472437740184	13.673285092887008	8.203285616680015	14	-0.50547390661994	-0.08752659575060896	-0.23787892133063226
Si	6.629729712557945	15.010217644206561	9.595608171407507	14	0.6133526007532452	-1.1251138883230754	0.06052844722586204
Si	5.520934125775699	10.908370836148638	11.090436504392303	14	-1.2147634457365306	0.7163510798783771	0.730480074944187
Si	6.69324706472757	12.434043926481992	12.447263108202803	14	-0.6540963925405677	0.19147484118100372	0.26020691415186226
Si	8.096993603658234	13.530338410550485	10.986168168572227	14	-0.8703893420453647	0.9498760914598707	-0.3155707821211428
Si	9.510499489093892	14.821950384538319	12.255421773476712	14	1.0683035165006793	-0.08781533087806158	-0.271419247342496
Si	9.518463638081244	9.628264446251142	12.617480472830037	14	-1.1488017387481315	-0.4012549237993337	-2.4803949246795303
Si	9.074527611946058	11.48089196447922	14.860334971460968	14	-6.86003758141499	-8.830934819648549	3.7821303787491143
Si	5.2845229326798115	14.005820953063854	13.740768199572877	14	0.6534171065149845	-2.0912805030914043	-0.6127571327610989
Si	6.884876239747031	15.09498360699408	14.913554417870309	14	-0.24180191382811422	0.36792619975531815	-0.025188347489894687
Si	11.781048989428795	0.8389284399485055	0.3011362235955612	14	-0.3200897568318351	-1.0806864739435764	-3.856084880846257
Si	13.5058421244234	0.23929982910154532	2.774069764078338	14	0.38494511720097435	-1.0249328264077615	0.272392667816704
Si	13.424633916716296	2.458800440025712	-0.1164593589626016	14	0.9707503813330891	1.031922633331116	0.017979482393263503
Si	15.024187544889292	4.046244644943349	1.0056370094276221	14	-0.9558269147233536	-0.6971899174799737	2.1190222152747378
Si	14.960458033013037	-1.10859974705305	1.5228334142599942	14	-1.5724363345856303	-0.7123573819845913	-1.0396860858453032
Si	14.810656960154613	1.526097409746614	4.162296004470123	14	0.016326775893472315	1.0630756880532222	-0.3335407514247218
Si	11.228372953656864	2.262585351347551	2.25657959965217	14	-0.8111058240155185	4.560010322933423	3.1528387247846754
Si	12.244275228889906	4.065893897772802	3.9234041748044057	14	-2.255934602014751	0.11119850532268032	-0.500819434658876
Si	10.597622145844982	0.0520280880567228	5.34063101509481	14	1.3842409382404754	-0.5413534242520744	0.6664952908364498
Si	12.306764422481246	1.3112612268172856	6.703202250961762	14	-1.3741496069694261	-0.36759941226912735	0.3325912422299911
Si	13.391357482730205	2.932324585247109	5.418983226751123	14	1.5465836134810091	-0.7553660604484321	1.1715328808835608
Si	14.843247955088515	4.3854553758903325	6.661064069229497	14	0.9123181562747436	-0.41990315068636774	0.034435841994871284
Si	13.639160020074396	-0.06374583185368861	8.174448216555728	14	-0.5000079938198373	0.4634785007627693	-2.7729905667703627
Si	15.00607236993855	1.213569841902749	9.25974303583431	14	1.2579235623037284	2.515018971583837	1.7723451725483157
Si	10.853682591770319	2.4790698519976226	8.222249430457277	14	2.470455802843434	0.7287944582962979	-0.719817958292065
Si	12.198106012731666	3.857063466538854	9.667644551797212	14	-0.6557763527567525	1.1498198964549102	-1.1369952231180116
Si	10.997641112707695	-0.045402177218884204	10.97787762003621	14	0.5474122339390034	0.1201541793738201	-0.2410532079588871
Si	12.506455666352657	1.3644643532491918	12.448372866668254	14	0.11258407397970811	-0.8876448011804746	-2.2529464634116754
Si	13.765917284797283	2.666619032658808	10.736603073665261	14	0.3260338952214854	-1.129050507678754	1.6165313050472336
Si	14.982147283021627	4.005754780931828	12.358972030289733	14	-0.698917443144581	-1.0203413465270412	-0.2814972088658804
Si	13.716875752610818	-0.1415268442998432	13.755945778585659	14	-1.1779408466729657	0.43426148834673467	1.0504991263797179
Si	15.105199912867201	1.1560419214510715	15.108317028556923	14	-0.06592442596125682	0.46418478339421404	0.028195512272339875
Si	11.139869716037161	2.645484661882943	13.641934416238023	14	-2.153001428964751	1.2213606448774985	-0.05719783739414223
Si	12.272671989623499	4.146318746563119	14.92693679936545	14	0.7014584665324834	-0.9054939285340066	0.23738681177235593
Si	10.905155800594319	5.159381345722801	0.09782194473400141	14	-0.8678285211464972	0.8787775731523478	0.7471086986022447
Si	12.252467857561323	6.665519423068734	1.4437957635514909	14	-1.926377778283599	0.7833746533639974	-1.3285924489122543
Si	13.511700996321885	7.941349978878759	0.0039331145613771	14	1.5207864282513035	0.2251311240428061	0.32538186291229587
Si	14.965778345656227	9.51165820749164	1.2790292713869131	14	0.03344442378342219	-0.8660431456121865	-1.8685371645594198
Si	13.526601135718305	5.3828344767368055	2.657251365612208	14	2.7979323452600546	-0.517646033426585	-0.1804666537527897
Si	14.797617298185566	6.922281628023696	3.949010219396939	14	0.961464834469374	0.229869414037307	0.7387492638748472
Si	10.904731481181058	8.305040675975393	2.4882416793150246	14	-0.46525693431271575	-0.6963921034991317	0.4893523049310155
Si	12.14738352286959	9.599459686081719	3.9024982837126045	14	-0.47752239224248216	-0.4425617876517687	1.6155625125626019
Si	10.598960383994495	5.527396836839206	5.235775160087142	14	1.4221112627220005	-1.4335069157219607	1.3203793100775734
Si	11.868801508086573	6.782647901106092	6.838853903385688	14	0.7715066883167258	0.13536458133728413	0.8796293803449129
Si	13.206843817871576	8.16277943269106	5.493337043936326	14	1.3751975894979185	-0.18425749143681605	-0.7318327334531168
Si	14.809188162185633	9.43426887450388	6.772904874578532	14	-0.3917850286841643	-0.9450925500117352	1.3438768987089387
Si	13.4988898140369	5.399513493673434	8.27907559187933	14	-0.8666535260151896	0.49543888255540214	-0.49592713545569816
Si	14.925255841689841	6.712178238549966	9.67590246037836	14	-0.07284944103054365	-0.4468645324050365	-0.1305419590882824
Si	10.692669694415356	8.412883086853316	8.343947502175903	14	0.042942601057113214	-0.6368674157902554	-1.50159466969959
Si	12.10604502003155	9.706257618403926	9.70433186106682	14	0.15025719468317783	-1.3968997752842243	-0.17838842932251403
Si	10.759043042635772	5.3565429930920825	10.84457604436265	14	0.39178682845788837	0.5045310822990418	0.3175739302760702
Si	12.065212436493933	6.731974371176317	12.342390933217702	14	0.6982186167185649	0.4188533683841512	-1.9757905658788646
Si	13.617519729998106	8.248426674259969	10.79365771477138	14	-0.7779663333230659	-0.7162916873454817	1.9266806544903126
Si	15.108627108128152	9.478985612670575	12.227171892540015	14	-0.7295038262541267	-0.011694929659225552	-1.3490047111594419
Si	13.607156544328086	5.451117262316896	13.503443087740736	14	-0.0739717285027883	0.22062988995882285	-0.2957210777180036
Si	14.918580970919702	6.633287467638361	14.933644310090454	14	1.394602749791204	1.4076197418060499	0.3715414309459784
Si	10.773029263295939	8.1179810946372	13.614500534172983	14	1.1967250850314357	-0.6394683459321172	2.0370029271198864
Si	12.446528709218313	9.404909235101734	14.933024150947997	14	-1.0468496994882996	-0.9331770195160409	-0.9548766341970266
Si	10.903507482873575	10.52991055947505	-0.15282026868354842	14	-1.4549262799230502	0.26435410703326107	0.19751642446228768
Si	12.053054053306273	11.945587001909308	1.2435006805150546	14	0.9322141405736455	1.2595253609181807	0.37660110910549777
Si	13.536686881771962	13.609833020627116	0.13212653729837762	14	0.1108596336414848	-0.12785026892861934	0.9754637316059844
Si	16.5018146216596	16.214925738363135	0.2092873906020744	14	0.5196640939923692	1.0667225438393202	-0.8524173158575297
Si	13.587833691047296	10.65526430613869	2.5699884462774225	14	-0.5182142477023378	1.6869135134125635	-0.03356012352282885
Si	14.76747429986663	12.11484148786799	3.9266681702910256	14	0.5816238755499578	2.001333211681876	0.719020144311223
Si	10.781548291516017	13.485833832090421	2.516491560251721	14	0.6263305119672247	0.015907428615756163	1.8181540418163298
Si	12.162104142514247	15.051082867699042	4.014991888158963	14	-1.2435400278112239	-0.6062262681373908	-0.3671777509966231
Si	10.777158217586514	10.988942564735854	5.2996352317828626	14	-0.6328904300810504	-0.6561838729499959	0.13045145618101317
Si	11.94969963622245	12.0977381515181	6.933852492023764	14	1.9076015103516217	0.18620587504842426	-0.9343635846212892
Si	13.341728431356149	13.555650695549224	5.350749401103331	14	0.44755744528881647	-0.7297727638706142	0.7175857246531123
Si	14.83081213228449	14.936288146434617	6.7063683265837835	14	0.17561780622952247	-0.6206139163984074	-0.7090136595157386
Si	13.49103990489158	10.74907153642415	8.263490013430719	14	0.4003041290519429	1.3591232961468849	-0.8981675639242446
Si	14.905443389086058	12.16212046249168	9.65284233226539	14	-0.23160491012840695	-0.4245200845097576	-0.8286865279736271
Si	10.776325898737426	13.459640268310295	8.280022150570451	14	-0.19714567107512232	2.0364195433227446	0.005286963869820495
Si	12.480082582820767	14.92130640715103	9.416610658921268	14	-3.039644527512496	-1.3484542375103983	1.8308637867454178
Si	10.754848808435467	10.96180244226461	11.03862057604221	14	-0.5595542788134027	-1.0234408139904794	0.712443256902284
Si	12.15085967806284	12.235903080466725	12.231121327078828	14	1.0852350163654503	0.030796442414201677	1.6567027687902913
Si	13.609555581010753	13.541468635159859	10.95023157826454	14	-0.44346578828233274	0.29854955068069855	-0.09293517290207245
Si	14.83190557077251	14.898180999128328	12.336564701274085	14	2.249849309943025	-1.081270371961782	-0.2919510659870705
Si	13.723273183764592	10.7291285240009	13.520252664496828	14	-0.8395191089084748	1.9148743959707248	0.3702422514277076
Si	14.848258188160475	12.272835189397831	15.076199312968583	14	0.6994463195089355	-0.3197560273612799	-1.367024817016764
Si	10.74438770290085	13.451904599007007	13.75785521594533	14	0.7848892915080965	0.7936752726081066	0.21516757670616826
Si	12.140300652663624	15.011082603010514	15.292634853686355	14	-0.060528961446926065	0.2944159846574964	-0.8780561209995144
H	14.535477660666398	-0.7938200223234171	3.863759553279655	1	-0.6909909825530967	0.47476282490236726	-0.535112323197947
H	8.643613295804743	10.503470564035684	13.589899800190327	1	-0.5083535445785059	-2.4945797127307876	-1.531301220568581
H	9.744630781342373	12.422414310563166	14.687612490297756	1	8.634492345878487	11.8100277599873	-1.2357356947224465
H	3.049929606625514	14.48769766273551	5.893866826092696	1	-1.905006750862528	8.712837267420316	-18.53943056541195
H	7.545923453665719	11.636393605455027	13.455539057981358	1	-0.7630680635454677	0.3220116580586458	-0.4269214968787759
H	3.176411063729782	14.39031962138769	6.3893495009503285	1	2.9651495790770577	-7.435218781253721	19.53724208735013
H	9.439838882801798	11.706035845155293	13.402138459822512	1	0.0482763590437604	0.4682036781201375	-0.82801058438496
H	8.483909260639912	13.825351378613146	2.03932153207177	1	-0.02799599449949639	0.041491726324953654	0.01892487781948195
H	11.461280247597864	0.9814605948582277	1.6933331144968198	1	-0.37303241492113226	-3.24437804460844	0.9539145265862272
H	14.780208778257679	6.731974371176317	12.342390933217702	1	-0.12155388911010871	-0.19218266647564047	0.0938543430540254
