223
config_type=divacancy dft_energy=-22992.663349586663 dft_virial="-35.85881869028193 36.62508393107593 27.569584809400947 36.62508393107593 -79.16876865432639 -45.085929298176396 27.56958480940095 -45.085929298176396 -78.79760892831679" pbc="T T T" Lattice="16.3199774331 0.0 0.0 0.0 16.3199774331 0.0 0.0 0.0 16.3199774331" Properties=species:S:1:pos:R:3:Z:I:1:dft_force:R:3
Si	1.3784668938867914	1.4443996027165156	1.2465198763401781	14	-1.204492394203603	-0.15519705933477834	0.20242672140270648
Si	2.5739542007936658	2.8918020812807215	-0.0354633109621263	14	0.5385187806366112	0.2096846946109525	-0.7346820323689048
Si	3.9767868209880755	4.141210593626558	1.4102582099264704	14	0.8353911993169773	-1.1198073840528215	-0.8620175660124306
Si	2.6888142019678236	0.0825627658340529	2.6368840337756994	14	-1.1063371061700338	-1.4179679264985816	-0.3046217301152922
Si	4.09605321606917	1.2206363921312815	3.911719070962306	14	0.7658127184747259	0.5358101211818351	1.6821744520864663
Si	-0.2605647596968746	2.7524621139569136	2.472019621746523	14	2.364695442383399	-1.3540217089706468	1.6114160910127993
Si	1.2949249294067526	3.894403574905787	3.980083456429562	14	0.07078767167431692	-0.9751384867829856	0.06181682810178825
Si	-0.1383444487003887	-0.037927627554524404	5.468106358824754	14	1.6364601994942336	1.084081618518832	-1.2803747110697934
Si	1.4384917708857332	1.223198628588278	6.83180367313459	14	-0.4744545493744815	0.5932110758962691	0.025870975952394
Si	2.8222300174834163	2.542815683851311	5.372667130795985	14	-1.1437495167940406	0.016277410671325473	-0.0007497343113551798
Si	4.0470769637924375	3.9483574202996157	6.81058770247156	14	0.6840130027142146	-0.6824500277900967	-0.6441469862831907
Si	2.8394312736979037	-0.0558796027309344	8.261629536003348	14	-0.8911119367046944	-1.0535649123634625	-1.0277345598751269
Si	4.012103252153304	1.386382082941845	9.525187468783681	14	1.2287721130733575	-0.48165364427089613	1.0635482572110655
Si	0.030746837483960402	2.7091488938494663	8.240658365001813	14	0.8047194555108026	-0.2653668654188674	0.19713795775916187
Si	1.5264727692275755	4.1359555608931	9.63921515110875	14	-1.5177687219370457	-0.7023670951526237	-0.40928140038777194
Si	0.0340271529480135	-0.0694741439327067	11.16603063986242	14	-1.4955605426237346	0.08961176216524906	0.6501793135853221
Si	1.3048801156409435	1.2618280151724257	12.497871358222845	14	-0.4760049258825308	0.5691748407003326	0.49708438996029675
Si	2.387449498688199	2.4149649806404057	10.857354586692768	14	1.6965656998949312	1.3230545451631872	0.47242414750316053
Si	3.7559775263182322	4.0331397030645695	12.2166618270731	14	0.008474877356272097	-0.3123018788171066	0.9135713130077838
Si	3.0155564701559188	0.08406420375789811	13.546250388547758	14	-0.8953830568625243	-0.4364710962588699	0.9040106578748132
Si	4.117040707048137	1.4308377014696094	15.108806627879916	14	0.0877842205036878	0.9744314328199449	-0.7347915614555433
Si	-0.2675497100382414	2.7507648363038713	13.666806061846065	14	-0.42674743304860185	-0.7372094288986105	-0.7786952416813279
Si	1.0194273903585915	4.192406362834193	14.864594485571008	14	1.5490768143099567	-0.9431562505951316	0.46091485164804974
Si	-0.3009730238212302	5.279741179291914	-0.0397228250721654	14	-0.4107507870782366	1.344265135612281	1.1155488623110603
Si	1.3360675925155976	6.62380556074973	1.2336270941680292	14	-0.19695206684451516	0.1891027394126351	0.14907911422548598
Si	2.73965093167193	8.16046199589556	0.0239414068943577	14	-0.23921409632338517	-0.5505217287131905	-0.2989614417529862
Si	4.155670093632285	9.541997045539775	1.2134066421284182	14	-0.040836351578847914	-0.29181222629978243	1.7118684045393886
Si	2.6053864773298163	5.269867592944888	2.7277536681232006	14	-0.3124039516983164	1.6667388212969576	0.25981276370628353
Si	3.9820744936764	6.6574410342393495	4.086571309180539	14	0.4612305833813639	0.43467826451913066	0.43407096944251167
Si	0.157650982003746	8.084639380741377	2.631335241448445	14	-1.0864748033508258	0.4406884803155088	0.8221788032978002
Si	1.430756101582444	9.56750517026771	4.22782071386402	14	-0.574334020635742	-0.36656968458840805	-1.2996199486121656
Si	0.1292868612250182	5.276656703557057	5.356232913520853	14	-0.32277116257021754	0.8785963102272775	1.2267692220289619
Si	1.5079822347958731	6.793468046144238	6.821358887577406	14	-1.1499602788053902	-0.7791161316222361	-0.18811697763289031
Si	2.7805324751418454	8.22463214716251	5.546703370142564	14	0.5831642247472585	-0.7439616656903834	-0.24247271520614086
Si	4.06762381538071	9.4631225946056	7.061148316001944	14	0.49082374850573623	0.23676049051636788	-0.08513675335553132
Si	2.7764524807835707	5.266750477255166	8.141873541599258	14	0.4241950967972909	2.059342747025589	0.3588519977489195
Si	4.017896844142054	6.909584685580744	9.520405715395782	14	0.23077135778361493	-0.2888991639720548	0.8301708270749485
Si	0.036181389969182694	8.271584722237538	8.01800491288203	14	1.6607075224369543	-1.7259904576208338	1.7967624455526976
Si	1.3221956116974627	9.71760000271993	9.486786561883598	14	0.7596479792486067	-0.8602324475886518	-0.6499818526967348
Si	0.12931950117988442	5.60870296441091	10.814694165682644	14	0.6146733775562052	-1.0916995464718988	0.5036754184484965
Si	0.8286305341882194	7.13951684763569	12.332452066960943	14	2.526949414490388	0.12669815663466097	0.07219997982667425
Si	2.5467814383675544	8.378007295078783	11.030591147145126	14	-0.5536456216771705	-1.376424263846161	-1.3784945178499444
Si	3.9885045647850412	9.59498801226505	12.265115840071974	14	1.7041406903891514	-0.9411551593244604	-0.5503864885733507
Si	2.3108598445946607	5.686337097060167	13.643925453484862	14	-0.49472077283948473	-1.4758823309454492	-2.2040203860535135
Si	3.8416410878645744	6.740591319260993	14.801272973130581	14	2.507501573848788	1.2154540446255224	1.6130212320641677
Si	-0.1994627641873482	8.354473887620252	13.97321363815252	14	0.019327770023149157	1.3139929415728575	-1.0258669089705712
Si	1.4780350762061345	9.755772429935952	15.170740942238531	14	0.17240726701625356	-1.26952104707132	-1.876861889364995
Si	-0.036817869089073606	10.9087461956296	0.0198287725812165	14	0.5164918642483706	-0.7904199961622671	1.5086068452392298
Si	1.3321181579767876	12.109113175788972	1.3974470276414868	14	0.28371581564663617	1.4812459137538103	-0.002540509166838317
Si	2.6622289587293038	13.589465688790606	-0.0996008222742093	14	1.0573050992726818	-1.6172522429790033	2.835371238268859
Si	3.986790967154566	14.886887574744623	1.3912291162394756	14	0.32407214186221245	0.03351538629025827	0.010888116809763086
Si	2.734200059209275	10.848868198427557	2.7558240293081324	14	0.7762976859702897	-0.688915843449205	-0.7428018400804646
Si	4.236323422106665	12.077223939884693	4.044106727899613	14	0.5046634942230293	0.3790045783587722	-0.08283021477282648
Si	0.0206121314980053	13.58891080955788	2.7021802634855323	14	0.49500950796693727	1.5286946339950152	-1.1128301755455356
Si	1.4174553199744675	14.959152434818389	4.121969340232933	14	-1.0488754733700445	0.8235227200486416	-1.0377323029125227
Si	0.15712874272588678	11.269923616201535	5.239300275212692	14	-0.21201025937302642	-1.754502472958084	1.4047498740477007
Si	1.5523399334590389	12.473815711486457	6.717025271847597	14	-0.3426964574697691	-0.08886228496442589	0.9838234234439138
Si	2.8913777618674605	13.606569025140494	5.178443079364662	14	0.4161408522713951	0.14242869320439094	1.166729284813928
Si	4.178322222309427	14.897430280166406	6.691680346893993	14	0.17465441306606294	0.39960273152060655	0.24911053781116715
Si	2.859765965579546	11.124610537137213	8.31687265961439	14	-0.32142518893512	-0.674536165614681	-0.3992674593868592
Si	4.402281272623859	12.270289272918268	9.80014644857655	14	-2.0695094116825183	0.94937575436457	-1.929454362909688
Si	-0.0858104413432398	13.667083501462429	8.18747155854734	14	1.5297683275767087	-0.38300084735787837	0.24726679818608896
Si	1.1617049536203572	15.127509322018248	9.595330731791144	14	1.8622618678045344	-1.6410894746231603	-0.8764574077114463
Si	0.0405551439212535	10.87026368884235	10.923532095183988	14	0.02854749659066815	0.3128186709864564	1.0483440259003698
Si	1.4630206969676827	12.26319008273487	12.274663026870337	14	-1.5821276018688644	-0.690825917591543	-0.20665747520701014
Si	2.6560110473272927	13.46882841560513	10.823278473812456	14	0.18739706814324888	1.5989205191568794	-0.7749882220307382
Si	3.9611196426522994	14.762284547042904	12.260464646503541	14	1.6741415477347277	0.4856601976912828	-0.07808832523087739
Si	2.8271749706456455	10.96439731867647	13.492818782431788	14	-0.6201822278151545	0.595102123859238	2.8132075390775864
Si	4.139888675454477	12.302325388619442	15.025297303354744	14	0.17763740945849876	-0.6884247623330568	-0.985441934242947
Si	0.1272142240910145	13.450011481624767	13.766194724413646	14	-0.5560794299732226	1.1244052916968423	-0.18104695222354714
Si	1.6466204430900575	14.928160797672932	14.903827711320181	14	-1.9914874209689006	1.740923694430786	-1.9002373504936534
Si	5.3496070026830145	0.0214607703245265	0.1305924594196662	14	0.9569093500631358	-0.24709299146644692	0.3432610721980736
Si	6.874496734099579	1.3631587550545439	1.4757176394106344	14	-2.6730007950908674	0.941894094993471	-1.0624416534812735
Si	8.167006306846234	2.593913533194347	0.0395106653655351	14	0.04587854622219031	0.9293645845473254	0.40140430501843427
Si	9.37251407989703	4.122834299036887	1.3487645349585495	14	0.8073185858789402	0.15972400447196305	-0.908559457407219
Si	7.89702492017046	0.060285996637871396	2.8690683527164134	14	3.0045831355932324	-0.34707890648796147	-0.11398506926865681
Si	9.465864350814362	1.3241703289668678	4.082654514596595	14	-0.7962132106696248	-0.17571165157370786	0.7726983956326144
Si	5.322058880775941	2.7229555947578685	2.7521030744533856	14	1.0136760130950893	0.20021634215897519	-1.0434787233030536
Si	6.808727225044186	4.026089472813471	4.01118933341705	14	1.1015581927114746	0.14466838304877197	-0.3417076103636401
Si	5.644264195237635	0.035430671007260106	5.284914612138206	14	-1.0310304597850246	-0.2296403285532818	1.1531247952334287
Si	6.963750690681203	1.352942449181423	6.803880191746556	14	-0.9296376359323251	1.103301145008003	-0.9090019446328166
Si	8.32051201458197	2.9115655739522057	5.508139263468148	14	-0.8784636411927578	-1.221074480855366	-0.5317238634965239
Si	9.643425705286491	4.253573638253451	6.839359822686115	14	-0.9520234786232583	-1.3018771219727236	1.520793884456732
Si	8.168654624566976	0.0546066444911526	8.164182950750305	14	-0.22296368225792126	-1.3926309691211824	1.1727328157364738
Si	9.294096588330985	1.5896147619162393	9.514008284242008	14	0.5204318260409655	0.23462852998490105	0.26870133190856743
Si	5.461268288280285	2.63241235995903	8.155696562485094	14	0.16003099444718877	0.5058945394503163	0.5480735222273455
Si	6.571075713663384	4.166735038331927	9.736873896068422	14	1.5460349396056896	-1.1187059225336702	-0.8311434762175605
Si	5.448473425972734	-0.0870670796055885	10.99476879667947	14	-0.6348588683141557	-0.5781454271623294	-0.8855609203184945
Si	6.777964067582793	1.2330722149353035	12.412844275796395	14	-0.8295869290567428	1.6542028830875113	-2.06131067103763
Si	8.137450827714888	2.821495618498927	11.150004422023118	14	-2.4867823216263747	-1.361524451405371	-2.006290816960185
Si	9.228767718666287	4.086587629157973	12.51905468893101	14	2.0219853580554332	0.9956577070114914	0.5658522012951054
Si	8.095247366072892	0.054035445280994104	13.630885791515814	14	1.5532908559296794	-1.3076006595259053	1.769553980612763
Si	9.534359296101083	1.2231659886334119	15.208701209747922	14	1.4106747291474497	-0.3363998205407264	-1.226528823681528
Si	5.5090205422495355	2.740956529866578	13.55210926044624	14	-1.2261254172567968	0.9341370702425843	1.0759309575434306
Si	6.970099161902679	4.0951556173103505	15.024954583828649	14	-1.9753789319171091	-0.413084836487867	0.17855889360523983
Si	5.360949386999019	5.403528208121976	0.0437864994530073	14	-0.648353828808017	-0.46669495351827456	-1.5143473520875246
Si	6.599439834442112	6.806997307436278	1.274737117322008	14	1.2645040492601152	0.642083931374304	0.6470898734326321
Si	7.916494653248148	8.158177199054926	-0.2275494453497133	14	0.25249128419662986	-0.37922260808992075	1.0903535728368012
Si	9.101798294236769	9.494620151051485	1.248168194060921	14	1.6450811156326899	0.5742728283291224	1.4431441897934718
Si	8.210515366682877	5.608523444659147	2.6654929542159236	14	-1.7974152491934834	-0.8290896772878261	-0.3769191548336001
Si	9.590908017906774	6.831689433292558	3.978157699092456	14	0.5245301679212816	0.4930888922927867	1.4231744147718817
Si	5.402500049543692	8.119972131884039	2.8037068430968475	14	-0.7773171292297285	-0.07274016905443736	-0.9784295015927753
Si	6.732578210341342	9.40894026952771	4.155719053564583	14	1.475375051865784	0.09376975368899254	-0.2974707148883644
Si	5.4536794987738935	5.158549026873713	5.399480853718568	14	-0.8792622265051958	1.8740041058016503	0.5924307454316042
Si	6.734618207520479	6.530749049426194	6.910237484678069	14	0.5585579755018453	0.9262545755520742	-1.1738057379865714
Si	8.206223212617973	8.059425015607237	5.520901485820832	14	-0.5520494794944225	-0.5237269546192672	-0.41375820897121374
Si	9.67216518554618	9.520030355914821	6.620557885240543	14	-0.10760667119043345	-0.20010269930382463	2.03206100558403
Si	8.181318927055061	5.42776337461013	8.315518101487443	14	0.17583043663949868	0.22658405565922177	0.6661769879978154
Si	9.545424240800724	7.117272718394375	9.500723822611464	14	0.3608507750248027	-2.301075241010059	-0.12346602013670287
Si	5.707634667610362	8.140551623427179	8.238504127980644	14	-1.5908073963191522	0.08942201459262213	0.33129977602768074
Si	6.976986192379448	9.56724405062878	9.645987941743487	14	-1.0445069083205807	0.3107972679837559	-0.47162916173817077
Si	5.264025041023838	5.424858418627038	11.104439045029903	14	-1.5593144414737223	0.24346721874397415	-1.3685988476937585
Si	6.672585973297266	6.721807025235496	12.250476820314482	14	1.212655139374009	0.7868821552417433	0.4726601749715502
Si	8.139278665187396	8.124280605926376	10.924494973852543	14	-0.2641214220017877	0.1334627347319706	1.2577209592045007
Si	8.121310370033553	5.620975587440601	13.79617452295825	14	0.5862359242732395	1.002718990662746	-0.05474628847138103
Si	9.6964329919892	7.130524540070051	15.001111096798889	14	-1.134902600497943	-2.059554863214501	0.5295669632434516
Si	5.4142341133180905	8.19778578428506	13.504585486161053	14	-0.28184327964197237	0.2826750322130403	0.6481581676931537
Si	6.983334663600923	9.714727686691704	14.729824111928469	14	-0.7707060461200317	0.3617807438191002	-0.35842673692896704
Si	5.541187217770175	10.838292853050907	-0.1438279611179103	14	0.06381869070405555	0.4739704102426976	0.7073002749303919
Si	6.8421994987594745	12.348918924190942	1.249131072729474	14	0.8235854550184533	-1.1586012495653437	0.04095410820251069
Si	8.503703761268518	13.44598044719879	-0.0743538171852036	14	-1.678992195031719	1.0050700093674896	0.21624769805116248
Si	9.552229671390327	14.99410982648009	1.551882974090912	14	-0.3263534836127798	-0.2053130442351047	-0.06342634003220093
Si	8.13940922500686	11.030754346919455	2.8868897680733583	14	-0.13301819062211698	-0.4558433464040576	-0.23239732478807656
Si	9.698244509484274	12.4497763847275	4.377164827354317	14	-1.1150325843627746	-0.9422278244640263	-1.794804548851405
Si	5.563415027034058	13.580587621067	2.650217455338542	14	-1.4968939178427634	-0.015094188002993328	0.2718630201207536
Si	6.871591778116487	14.84001659955676	4.06045934528758	14	-1.0190611931881393	-0.3673399877423244	0.20105169427749128
Si	5.455686855998165	10.619670435357099	5.558616953668727	14	-0.6561306510698689	0.796132477962572	0.117930173271892
Si	6.9547747030929985	11.8717227840471	6.852954363887887	14	-1.8199381317979806	2.0226813562655974	-1.5665076228279007
Si	8.051052867184058	13.564936762708657	5.50141543276571	14	0.5958279468911158	-0.5347526255636583	1.255504409308001
Si	9.437141190532108	14.892746446643105	6.866385705315329	14	0.311753719162851	0.9141845216266391	-0.5694664040436376
Si	8.289944696849776	10.911667471590125	8.25296362798637	14	1.400607052045346	-2.1204604915908285	-0.05306298581828008
Si	9.570752845776896	12.332762146532174	9.434660553962274	14	1.4793949750338355	-0.8465060876159772	-0.279580706960242
Si	5.427306415242004	13.30298480492997	7.986246236797218	14	0.8526245469463336	1.200652448407962	0.6168295064776814
Si	6.753320901658811	14.74536073044478	9.536790972738615	14	0.10235750256881913	0.9086880126732266	-0.5856448271601373
Si	5.519775407377948	10.878896956904459	11.04093801283771	14	1.2292128005252307	-1.3021082643410051	0.6394392924419995
Si	6.896675583431162	12.326021995852305	12.280864618294915	14	0.3390632285418678	-0.24035463864340287	-0.22469737857529712
Si	8.376342657380606	13.52973457138546	10.814367766133982	14	-2.0426537023925078	1.0837052086999626	1.2901210000068786
Si	9.43115175881416	15.05981405562575	12.221280380686668	14	0.4222387427591902	0.058962386975359854	0.36434465004435185
Si	9.357499700658579	9.625196290493717	12.285140452382388	14	0.661638987107754	0.1861128010358349	-0.9573873185421512
Si	8.811547495589084	11.6058213917296	14.615421070122437	14	-7.052814430330117	-7.245238780705851	3.332534046941421
Si	5.628678616789025	13.572998831560607	13.723860702952184	14	-0.9192763386026604	0.8326632565723	-0.19429328683295002
Si	6.842379018511239	15.054983342305553	15.095489526294507	14	0.2776811743497167	-0.7627641588966263	0.11658291408413443
Si	11.500867616857334	0.1557415446440733	0.39605321234647084	14	-2.1643294618947913	1.446203033792852	-0.08858152026346572
Si	13.432222706222687	-0.0562386422344626	2.588005701363565	14	0.9962120373185154	1.6704178158995573	1.8682378879001544
Si	13.080396632719918	2.4678580275010824	0.1467818770333014	14	0.3550904706655429	-0.19546673930106562	0.2682454749353052
Si	14.59732221514913	3.8723716053711015	1.3091233097735495	14	0.22052087509324858	0.02899666869009802	-2.205303624718799
Si	15.054477423005126	-1.176376613332714	1.161150074387632	14	0.2661284268146953	-1.6291194366946788	0.3423218474246235
Si	14.846822030146363	1.3864310428741444	3.929671046138716	14	-0.21650275169892116	-0.334568165110653	0.4857864389625021
Si	10.578119772812427	2.9225815587195476	2.9313453866011225	14	0.7720373644548044	0.2521732384685275	-0.7441910082849406
Si	12.152589595670749	4.135172201976311	4.133866603781663	14	0.8873491240686575	-0.34981147722221484	-0.3191744433378624
Si	10.79514283271779	0.15613322410246772	5.547029769691226	14	-0.5079149140108886	-1.3273642319008194	0.16840662713810312
Si	12.007831395839151	1.3788912133000522	7.055436323900359	14	2.6004364896403285	-0.6476801992141382	-2.1350797964411905
Si	13.453340757021119	2.663469277014219	5.360149708104797	14	0.14694561103082712	-0.4469856314656155	0.9149311706116101
Si	15.036998727174277	3.8716372063866125	6.701586573195884	14	-0.5213301702398253	0.5239616965349968	-0.15510887042229726
Si	13.66112670969935	0.0922241924744481	8.126989722180271	14	-0.05634011665934082	-0.0326494380184324	1.2313316484195647
Si	15.099030961397489	1.3783363340673267	9.779779116740041	14	-0.7801990811830825	-0.19229502377813096	-1.2788981252844323
Si	10.936294317536673	2.7891331032490894	8.274881357679025	14	-2.3665643788406148	0.9694033792558634	0.20745503207732005
Si	12.152671195557916	4.362346287845063	9.253720964161497	14	0.21083320735746264	-0.3237916342717843	2.9852592222280636
Si	10.697663607509885	0.3482193584900547	10.874147843471428	14	-0.07167393167817195	-0.4941314755001067	0.9195015674287053
Si	12.093560237295227	1.623315515315591	12.323068079936911	14	0.09942567117225427	0.31904074586121467	-1.3924759314703776
Si	13.540766876130236	2.837913515796625	10.727594446122191	14	-0.0518131715221561	0.9737161513198798	0.8212681177934037
Si	15.029116178074089	4.349796225199009	12.116147086062636	14	-1.0043794104784978	-2.1060471322766103	0.14479153899360706
Si	13.173877463456716	-0.035544910849291796	13.468289856349838	14	1.8816953102563414	0.6886281367638806	0.308073696118123
Si	14.551038759148858	1.2332680546645007	15.098965681487757	14	1.0917951915898085	0.3174176070726052	-1.3491741470000396
Si	10.764967194443988	2.818019463305676	13.787557574873574	14	-0.38023690913871916	-0.07191355869400975	0.7994636020153559
Si	12.174752125024899	4.19007260606126	15.165273749798443	14	0.005077418786228427	-0.8119992831142699	-1.319592037628544
Si	10.895494373953923	5.567870380873294	0.10330545715152299	14	-1.0127959237440025	0.5681047466660871	0.528079578815746
Si	12.207473679778264	6.876422491436685	1.57487782229415	14	1.655743232284812	-1.7757452022236795	-1.3182414360038701
Si	13.344453867587475	8.192041152228608	-0.017788775402079002	14	0.3585725186006195	0.8817001485697603	-0.3178289839238289
Si	14.958401715856468	9.5215970737484	1.2617464152852604	14	-0.5746880618383263	-1.0656012848092036	0.6909251622569008
Si	13.714590955770184	5.229116609294437	2.7452976438637826	14	-2.1426527300511546	2.038929456336273	0.9132028736154065
Si	15.043722557876714	6.594364321460418	4.01566100723372	14	0.33707833523471353	1.6380751107458185	0.3394283254973289
Si	10.963369160098186	8.257043622344646	2.674207822165199	14	-2.3460428446173207	1.4886486401915804	0.9096884297532961
Si	12.294769239067918	9.605090078296138	4.109386637632013	14	0.42314042939496616	-0.5214834081169061	-1.6931142481131647
Si	10.953413973863995	5.465886841893852	5.562582708184969	14	-0.5326258072428318	1.044860949523165	-2.1616218308821438
Si	12.281860136918334	6.822109606539328	6.706841605929343	14	0.9488059974256251	0.9097285389962906	0.7559898105991001
Si	13.632534109236556	8.204803374581292	5.408538441193938	14	1.5613723541719688	-0.016480013770553144	-0.12375758348000764
Si	15.262981454690411	9.680569973924225	6.799669637568815	14	-1.9419836162453015	1.1307453803057954	-2.3957587655298322
Si	13.679633564108483	5.426017137024789	7.930382954043716	14	0.9437620030085585	0.09291820360695949	0.034532772665440865
Si	15.17209550036548	6.653573199587704	9.374129757662908	14	-1.521421234154848	1.3117928467504067	-1.5536423260269436
Si	11.171465192347643	8.204868654491026	8.197802104262493	14	-1.084461370774618	0.6825119914283123	-0.44157396898776774
Si	12.523102043334418	9.444191420783206	9.672703744801472	14	-0.48183285031171047	0.8884318165189719	-0.5717976252374158
Si	10.567903466939306	5.425413297859764	11.086813469402156	14	1.1969032626301217	0.8066133316896238	-1.7751242802888638
Si	12.18960330448902	6.821097767938476	12.154499033030422	14	-0.7788765046063982	-0.5148000769477131	1.3031022536577743
Si	13.797414841243167	7.8404598783873345	10.868337931505245	14	-0.22624286998323814	1.0238161953672213	-0.2803399543612818
Si	14.807148165006497	9.579532993635905	12.108329816872182	14	0.6711536194554941	-0.6723553540821313	1.3340956427394992
Si	13.514034753094817	5.337987178750647	13.578025384610003	14	-0.05779356249682053	1.2746141496000014	-0.030574813135604912
Si	14.756376715212122	6.826777120085195	14.985394958530815	14	-0.6175201053666731	-0.4149638002558312	0.41195020771008567
Si	10.871275527443203	8.412099727936528	13.607662463628513	14	0.03299088080494807	-1.0197199103711612	-2.1979821452091453
Si	11.96996904819436	9.87848234025543	14.773463731584577	14	1.6212860501157838	0.36043065641549044	2.209937013616238
Si	10.408277767666155	11.032337384730466	-0.0326562748436331	14	1.1978903099625264	-0.7396270392311457	0.031219389239366034
Si	12.199166811264817	12.327311274069517	1.208657528695386	14	-2.4952379156927456	0.3344354960761333	0.427720596412278
Si	13.488918307825278	13.615724532480463	-0.0858104413432398	14	1.9396721925624885	0.879021056826166	-0.3610232961917846
Si	16.479847932034648	16.394021170713977	-0.27819033532462256	14	-0.6154045999092553	0.0003884940138743747	0.6650822113524965
Si	13.388044527311287	10.91612282542936	2.4369806301976578	14	2.232482521947553	-0.7863530217668568	1.80391783165867
Si	14.936222866524885	12.409857719926139	3.9848978497723264	14	-2.058708198232576	-0.4609878710391419	-0.06241126765180649
Si	10.948746460318128	13.643615373913631	2.8745192251790685	14	0.6131826506915834	0.18458556447566693	-0.454459834631286
Si	12.185360110356415	15.081176906085679	4.293329103280483	14	-0.313524953617901	0.09757653222600376	-0.8873869193168638
Si	11.017045565875652	10.926469691121946	5.360606667472924	14	-0.30994083280161455	0.13073582042942153	1.4377348413104123
Si	12.35353747780451	12.172728447823195	6.834888148869445	14	-0.47905862767127066	-0.06316717261593001	1.0784074461877973
Si	13.468208256462672	13.653472640283224	5.53852706144858	14	1.7548457155183237	0.008924306566233981	-0.6111147106825883
Si	15.016386595676272	14.955594679737974	6.7945125246999565	14	-2.129345974466729	-0.2769460953386863	0.4573962940174271
Si	13.849850928735716	10.913152589536537	8.22273902978027	14	-0.749145271126334	-0.4994408079862126	0.22259909952352427
Si	15.090609853042011	12.241386592884247	9.660137362177986	14	-1.350533747493334	1.5413131046852375	-0.19702045824603107
Si	10.919125701277052	13.658858232836147	8.141416582231132	14	0.8072054572448539	0.3199414040548626	0.18693041252764198
Si	12.039361592239901	15.312790025816234	9.60894159297035	14	1.6840220483695245	-1.4726041716622604	-0.7828231512728255
Si	10.922650816402601	11.015283008312878	10.809847132385014	14	0.6067291763380116	-0.528669390376188	1.3456345063057917
Si	12.305932103632156	12.653939302415582	12.371995372281345	14	-2.4634631677042274	-1.0450578961906887	-0.018300356337217983
Si	13.592484884615729	13.879308488002462	11.002308626253562	14	-0.12741806612430245	-0.21740109589778087	-2.0197369264529637
Si	14.850477705091377	14.918727850716602	12.55254328262373	14	1.3761468415821172	0.33533101205914084	-0.22047022431844165
Si	13.535626083238808	11.061827583952077	13.414841930256435	14	0.38404677300211465	-0.5092973973415322	1.0937294341221557
Si	15.013938599061307	12.097215912240241	15.060483174700508	14	-1.7909239795917058	1.7226523915836855	-1.8588464114972494
Si	10.477719271643995	13.628356195013684	13.894518706970112	14	2.0997245271838345	1.1632948023272742	-1.365552602110447
Si	12.12616755220656	15.10402487449202	15.034371210807548	14	63.45280981858241	-110.69142524656688	-105.96943477424308
H	11.897173788854017	-0.8281817348088092	-0.9095825182496253	1	-64.56743951074151	108.70861710582719	105.85670723258649
H	12.725123779983278	-0.5054019571414707	1.3415347849556862	1	-0.9826921371030488	-0.630887796147187	-1.4184230121402481
H	14.198989101955254	3.3888367859922415	-0.8343229423168848	1	-0.15726705622802956	-0.18998462853744588	0.07835520596310876
H	8.40746159035004	10.574189922246536	13.150670455546846	1	0.006589485825007512	-1.4497784128510498	-1.3558253393527306
H	9.69528406557791	3.7503977260338557	3.808919533111209	1	-0.4638070880226843	0.6484867549530687	0.47997882626535165
H	9.239837559359158	11.922874489315664	13.405387767329442	1	1.1435386861577883	0.8943888104352231	-4.540599506208433
H	8.618005619214465	13.95400992070699	2.396197006592341	1	-0.0157292510170699	0.006820885303820839	-0.30600704166178805
H	9.565819316598871	12.594472568644852	14.784391588473783	1	5.7677474520510525	7.732639873809407	1.8137379113184435
H	14.3415522648221	-0.8649653319452733	3.4048450518563693	1	1.0283698799997354	-1.2634167288202245	0.8852958393599872
