225
config_type=interstitial dft_energy=-23350.143286529677 dft_virial="-73.36837974770528 1.6640576294491902 7.8707559914231835 1.6640576294491904 -71.81867678947417 9.87393437000183 7.870755991423183 9.87393437000183 -78.06875106122054" pbc="T T T" Lattice="16.254729908999998 0.0 0.0 0.0 16.254729908999998 0.0 0.0 0.0 16.254729908999998" Properties=species:S:1:pos:R:3:Z:I:1:dft_force:R:3
Si	1.200200492290833	-3.9122859228775737	-1.2698195004910797	14	0.8910558866087149	1.582034013635211	-1.8884696585538676
Si	0.09886126730653798	0.028071918552843	-0.15198172464915	14	-0.41850421228167517	1.180047096151231	1.672822827816024
Si	1.4532541275141448	1.5017907510224189	1.2423815164046879	14	-1.548490859407495	-0.27225948456112037	0.39412447741496703
Si	2.8281116926771825	2.80979261206974	-0.005510353439150999	14	-0.44637885061006055	0.2793251390914193	-1.092293471800853
Si	3.99037364536041	4.173158083187114	1.4245807839546687	14	-1.0570852697678093	-0.17129989195486578	0.7591548412482024
Si	2.6827618978309045	0.13662100488514498	2.597749660406835	14	0.18650797992354165	-1.0270637584971003	0.06612780039208052
Si	3.9388136420890616	1.484024331231882	4.026101541700392	14	0.2727770480620662	-0.4942651729767545	-0.10012115516135432
Si	-0.017685146140991998	2.727624952379745	2.7946269490646425	14	-0.7515145446788504	-0.48749313867401645	-1.6620725222514208
Si	1.2475180110559319	4.010562019907388	4.161080818864727	14	0.8638327663684552	1.2154075076192277	-0.19012758199324611
Si	0.0011703405534479999	-0.015019370435915998	5.425308692267111	14	0.950002589841622	1.3994248578191417	0.15630469150669815
Si	1.4503120214006158	1.5113972963986377	6.879115480598162	14	-0.7570275087063119	-1.1205856576332305	-0.5867591442058895
Si	2.7696759386543275	2.851502249016234	5.493887397753182	14	-0.2699161791723374	-0.3598125626965269	0.1898319048814291
Si	4.171792685874759	4.259048076026271	6.680141331782093	14	-0.470417399800785	-0.16850124381388457	1.2370194476087963
Si	2.6809576228110057	-0.019001779263620996	8.176470493555088	14	0.7358084336096617	0.508999149124395	-0.439527626263462
Si	4.09081162146812	1.4722559067777659	9.444989615653448	14	-0.5079956467179413	-0.31538309143277204	0.03303278982166647
Si	0.004470050724975	2.8745352012972867	8.086679365537773	14	0.3482287047871317	-0.32569965152986624	0.6517435740621003
Si	1.3884627740968707	4.253066335419759	9.47649128221709	14	-0.5390561416485221	-0.9126313169027377	0.0767063561212978
Si	-0.11469337423790399	-0.195511891345452	10.820416096363301	14	0.36542117184189793	0.8404683609926735	-0.1657388482579175
Si	1.2941528311648527	1.1610753573998698	12.2020681386283	14	0.31180899792723415	0.819137957035661	-0.6418738720696477
Si	2.6277558918188486	2.7655309825275327	10.833062276232504	14	-0.27147221211209105	-0.874993420342154	-0.05021471534462005
Si	4.05734313258549	4.075223335485389	12.147533519783606	14	-0.602307903629485	-0.43382388622124546	-0.9480441789192651
Si	2.8219348953117627	-0.021602536049061	13.511923038885248	14	0.23502422309367188	0.3107939255468397	-0.0701348680335313
Si	4.135170779389782	1.396297553913009	14.905310996144545	14	-1.2072167374008318	0.40619581689306217	-0.5978879164736185
Si	0.055184808041054995	2.643295413611853	13.511305359148706	14	-0.17127906600177256	0.12334697796037998	-0.04061935028982742
Si	1.4079684499876708	4.087674458595683	14.765877922985144	14	-0.008798836626610755	-0.8943962666406513	1.0404967553527458
Si	0.06604296762026698	5.34177563526476	-0.029762410463378994	14	-0.4778766905555986	-0.6247233140316	0.6172190289336839
Si	1.2118388789056769	6.795371112106994	1.3765155476137558	14	0.8205831753361162	-0.2763745386260174	-0.43404191595239394
Si	2.76769286160543	8.04072724408503	0.11459584585844998	14	-0.049725948223259896	-0.5471263270274029	-0.7504421366498166
Si	4.15534289920685	9.413634241658986	1.376840642211936	14	-0.8488056842143177	-0.029711435969099184	0.642101929111545
Si	2.5230429217450707	5.495382832904811	2.7500402249242555	14	1.1226643962845702	-0.5632517853743076	0.8354850446611625
Si	4.247068340083338	6.713707349044178	4.105522152035766	14	-2.3135451018127773	0.41549884727295405	-0.4337107575871589
Si	-0.046634820108921	8.039085516364219	2.7757552076402936	14	0.19474708692195616	1.0960097474305952	0.12967241126900828
Si	1.3932579194200259	9.390520015728388	4.135642166557143	14	-0.11975668649132522	-0.4514760669072541	-0.15810343678867375
Si	0.004827654782973	5.417441402991156	5.529924133961435	14	0.30285280965503036	0.25731236378243955	0.5323959504272106
Si	1.3460541837642899	6.911413628927345	6.953123265873839	14	-0.2585326103673818	-1.491383524920622	-0.07761447052037408
Si	2.7181646995727067	8.014622147851176	5.528753793407987	14	1.1563890705478883	0.8537812872298682	-0.6626998251628472
Si	4.184910252911322	9.479222076841802	6.792494024913101	14	-1.3209796631698278	-0.5176984839751161	0.48252499186389436
Si	2.8180662695934204	5.498276174828612	8.182874857139232	14	-0.07390873642244467	0.5274069776639952	-0.5001697163444745
Si	4.130229341497445	6.886722694195575	9.566168627125043	14	0.43647726691163824	-0.6197988760119204	-0.1825307371038046
Si	-0.08210264077035899	8.086403035129319	8.335376733145472	14	0.06943784138123917	0.562165236266013	0.055434059144520646
Si	1.293681443997492	9.581626875268501	9.58572306720557	14	0.01343402529777371	0.05610846006999549	-0.5913344261230931
Si	-0.063767305433007	5.4210662077608625	10.905119493919099	14	0.8459741259252387	0.5028428945458325	-0.9232913766706036
Si	1.4533516558935988	6.620551491935699	12.171899359917196	14	-0.9805815167457392	1.967594396339297	-0.38699840190964463
Si	2.672537672718144	8.181395676717514	10.811931127350801	14	-0.23667872936718717	-0.4891489305001918	0.5313883342522445
Si	4.0587247846277545	9.385318502157508	12.22612513889362	14	0.2141995555531325	0.5028619207252016	-1.265749235566663
Si	2.7587852696152977	5.341710616345124	13.442889200961725	14	0.2108483768788515	0.4670330538678741	1.0721938559605955
Si	4.116022707556979	6.60559714041942	14.867486239646302	14	-0.3142260940387054	1.244773129922767	0.3504758508369411
Si	-0.013182585956198999	8.014784695150265	13.56829444220966	14	0.8204029408531739	0.091659647552747	-0.5051298927281042
Si	1.485812351521872	9.301492860016795	14.8810264296605	14	0.07264195283120771	0.31755156165978493	-0.1408821733543219
Si	0.11729413102334399	10.815816007799054	0.015441993413549997	14	0.31215095493481393	-2.7097917695589944	-0.7621090412610525
Si	1.4193792703837889	12.121590970848843	1.5856814120827678	14	-0.048262732185563616	0.3003598659366148	0.2956611709640442
Si	2.830793723112168	13.380779877979435	0.07028545212651599	14	-1.995983769952776	-0.28105677852453903	2.6846283617907054
Si	4.102726338491418	14.982862312540384	1.191504211789518	14	-0.49344499037962725	0.7957303570905009	1.3188934683130598
Si	2.8026405309097795	10.711704462731909	2.8329881116498825	14	0.058430939505685245	0.07398124159247284	-0.15892876159644126
Si	3.9798405803793777	12.343955676003963	4.109537070323289	14	-0.38391590374131906	-1.2363568737677941	0.6022868205658597
Si	-0.059866170254846994	13.508379507765085	2.8564436869085696	14	-0.38719611990876396	0.07469703731360205	-1.3475157840685443
Si	1.2807751884497458	14.982569727402023	3.961879103829933	14	0.26058280974966785	0.8269428043455025	-0.3590188624841971
Si	-0.07571453191612199	10.686802216511321	5.407867367074755	14	1.0192717667138596	1.0464959153962474	-0.49512932147485617
Si	1.2716887944306148	12.109139847738547	6.75530320288131	14	0.6637313526172907	-0.2857120218171992	-0.5777170810159927
Si	2.4537002439532767	13.638677422715629	5.350520679955802	14	0.36143415882194424	-1.294433772070895	0.28587991499460486
Si	3.903654661295895	14.849817348235218	6.594966547058933	14	0.5400429318703951	0.6341379303823862	1.5596918797347201
Si	2.7426768322754786	10.853055594020573	8.156217100088474	14	-0.13136471279072975	-0.5084283637433222	-0.17856429292641215
Si	4.217094618131141	12.006816322961393	9.565973570366136	14	-0.10800210718867222	-0.31035838030560664	-0.07036652462287665
Si	0.009216431858402999	13.482225647341505	8.026943233122196	14	-0.3060870030372446	0.9859522986489965	1.2638306767767684
Si	1.410179093255295	14.842177625177989	9.543249457953353	14	-0.04155189018944512	-1.544718790792306	-0.029085371823643128
Si	-0.15082763882561098	10.957898601933621	10.839645441845649	14	0.6949540842935729	-1.0808268562940566	0.47777513189545273
Si	1.1820602137123888	12.222191494255643	12.268875078554291	14	1.0344788262404074	-0.4789138744417463	0.33505230424243687
Si	2.8427409495952825	13.217257295094896	10.980102562989318	14	-0.5840697680410146	2.0743286914946037	-0.46764857648151753
Si	4.144273428138821	14.934845840389197	12.101272558462593	14	-0.4600746144294253	-1.1591098141976695	0.3968655327967769
Si	2.842269562427922	10.788849410880022	13.518473695038574	14	-1.4373489184018577	0.20417147347295894	0.1923706142745433
Si	4.167160087850693	12.205286575150282	14.82623173513726	14	-0.33304967030857346	-0.6187830322999299	-0.4038519972832152
Si	-0.24786837638234097	13.77698891951131	13.414589716190155	14	-0.23808923774582041	0.13164239216530574	1.1287288624032035
Si	1.3504104513799018	15.024506930567243	14.782083888704417	14	0.6599266309645354	-2.077793255913503	-0.8471329230930293
Si	5.458029463573928	0.18874992370330798	-0.036573142295249994	14	1.142021734018901	-1.3235911348435023	0.026143770226861714
Si	6.872467296065381	1.4869339278855929	1.3181610672404458	14	-1.008066632618122	0.1066908434753967	0.37916372977808943
Si	8.030275452753543	2.8933744332618176	-0.11672521547652899	14	0.6122783929504872	-0.09276959371945492	0.8062487489552267
Si	9.326248813668204	4.18752726442667	1.470435377027958	14	0.9235474587604904	-0.45955705092847954	-0.7613065992906343
Si	8.154705410206937	0.009801602135127	2.604804213187341	14	-0.26286389438970326	-0.2638905367440384	0.4870401099166064
Si	9.352386419361874	1.3401862262671407	4.115746377148526	14	0.2454428560719759	-0.1854165457151388	-0.28721457576629367
Si	5.284461457605626	2.8071268363646635	2.698366438543545	14	1.357963727647498	-0.5357417297803193	0.07749157168607101
Si	6.713105924037546	4.0663807624148935	4.111503892642277	14	0.234175501227491	-0.008183314012967305	-0.6429149126137756
Si	5.252163309276444	0.010581829170758998	5.265784772940186	14	0.15830166900885714	-0.2259435933239729	0.18319202539214668
Si	6.541082117410599	1.3369027708255228	6.700362215788889	14	-0.29667495779177855	-0.03676526341492544	1.3308218543353547
Si	7.950188398491899	2.6246187289464116	5.483598153720785	14	1.149143695755711	1.0998877455849743	-0.33761749602034863
Si	9.472703930148294	4.098711420203895	6.7654949185342526	14	-0.726800309009991	-0.779047225999656	-0.6421343250385788
Si	7.976813646082841	0.082882867805991	8.169529723883945	14	-0.02611497384727605	-0.5586060551713321	-0.5813428537384656
Si	9.414544506533892	1.4347887543375208	9.385432285266873	14	-0.40445800680717414	-0.7324536553879325	1.3846088634117886
Si	5.412077342121186	2.9490143737403245	8.187621238272662	14	-0.5215446004235256	-1.4530254617598648	-1.3596264614580376
Si	6.783196319405153	4.155863050563938	9.496874713522976	14	0.8881371678492829	0.8790138577312694	0.3485845457634402
Si	5.435679209949053	0.032753280766634994	10.767230620101053	14	0.44137702232024445	-0.14316942864712562	-0.5523412999482592
Si	6.722712469413764	1.470939273655137	12.079816314982711	14	-0.03394604643138307	-0.05752411065926902	0.009551399153818097
Si	8.144481185094175	2.8010638221086066	10.815523422660691	14	-0.18622670100151745	0.02225960141971401	-0.31105797806321894
Si	9.438227648011303	4.090242705921306	12.247337561424866	14	0.06487335810638027	-1.0541716932190175	0.1134518220252581
Si	8.126129595026915	0.20160741506132698	13.394775200431084	14	-0.024065031575521992	-1.1930712872609732	0.22987429913741525
Si	9.35425571330141	1.3894380578914107	14.92296363282572	14	0.4870745627278963	0.550303184760978	-0.037946429199001465
Si	5.2634278371033805	2.7200502482421505	13.41063981682227	14	1.7369019714890104	0.07202874421235239	1.329699309752578
Si	6.596169397072199	4.2260022101212735	14.951490683816013	14	0.7639651221916673	-1.2724595633417175	-2.0050482017589575
Si	5.343466127175296	5.3339246007187135	0.11703405534479998	14	0.8330208973223325	2.5313886849361555	0.2681742553179371
Si	6.863185845287343	6.947515384055234	1.3540677656094269	14	-0.5393957846613138	-0.9915421387255303	-0.7746588634392273
Si	8.276469591955255	8.289018243445003	0.032314403059092	14	-0.530248820374355	-0.3361599364143566	0.5234857849402373
Si	9.474150601110194	9.848041898477012	1.3341394667409927	14	0.18713224429527361	-1.4267842466413696	-0.00993217985173203
Si	8.028454923003734	5.589936596785463	2.8043310228203158	14	0.2772137474025137	-0.4222366858749341	0.4276835724956678
Si	9.408253926059109	6.991598211568442	4.151327980919327	14	0.9936591868461404	-1.039855007464837	-0.888796913474433
Si	5.4755358076859215	8.08555778917405	2.7403361511685826	14	0.4695414242182105	1.180795544909926	0.6477305928784131
Si	6.834122388210051	9.592533799037442	4.164543076335344	14	-0.5883912818631195	-0.546104569773176	-1.018674498947989
Si	5.585742876468942	5.536637337413852	5.461703032533363	14	0.7213451948522328	-0.10807589791136048	0.3324940544488895
Si	7.062485088701591	6.812389814321717	6.79641141482117	14	-2.209723097653602	0.3817075813818439	0.09582355261872683
Si	8.180566685492156	8.277461130479704	5.528428698809808	14	0.22220289219368947	0.9762111519225515	-0.028432825293389547
Si	9.561454755451434	9.645670511109962	6.841046903151284	14	-0.44077924033331006	-0.24097221814130246	-0.23619176201955108
Si	8.245975718645973	5.4809323780157095	8.12539813218101	14	0.059202013991197656	-0.8365885630645701	1.033758402529702
Si	9.663339402521045	6.718469984907515	9.480164851176523	14	-0.4162215849784477	-0.7687733462508763	0.9170201936842304
Si	5.540424689482649	8.128941663301172	8.142693164804186	14	0.13908265674075024	-0.5389057319872934	-0.33156768520204016
Si	7.1118994676249505	9.221795919272969	9.398777418522162	14	-1.0309394426566914	2.394198361711034	-0.022382500254017088
Si	5.458565869660926	5.4205135469439565	10.97239782101245	14	-0.05665276306627084	0.6841055625057401	-1.1712958249730432
Si	6.788479106625577	6.802815778405317	12.24514317288715	14	0.1519752072581008	-0.3809334215699473	0.6083710841954583
Si	8.215985741963868	7.902090652691168	10.831924445138874	14	0.30787777789272774	-0.1288182900816551	0.16443452652900636
Si	9.474183110570012	9.285416932136794	12.168550885555941	14	1.5355114055303236	-0.572979562353088	-0.25390127835419907
Si	8.198755728260327	5.42922608217518	13.629363462477771	14	-1.6498304613800676	0.89190512269596	0.5272902494824604
Si	9.458643588777008	6.767347957743878	15.043362417261681	14	0.6144532909408005	-0.6578448069868116	0.2915394320253148
Si	5.386394868864965	8.18004653413507	13.55073933390794	14	1.1734411552521746	-1.2405007242122768	1.4722586151072325
Si	6.889307196251105	9.48964135871347	14.919420101705557	14	-1.5499749013982844	0.2532849844089596	-0.16932194063207584
Si	5.299562101691087	10.853900839975841	0.05242150395652499	14	1.1978707695620936	-0.7269049529965211	-1.1956999853402925
Si	6.5519565317197195	12.246313513440597	1.3139998563837418	14	0.7417991090056069	0.12487447163107997	0.582653603230677
Si	7.922929216434506	13.602461884478377	-0.004551324374519999	14	1.1244454009398368	-0.1405487009942987	-0.7179407942978248
Si	9.474313148409284	14.71244862577426	1.442038363876935	14	-0.19749277029334228	1.3824658471274451	-1.4001072291711092
Si	8.032128491963167	10.968968073001651	2.6666697152209946	14	-0.12524188258132912	0.9284837238646425	0.9819478021128659
Si	9.426784318155368	12.316761512866204	4.189786671884021	14	-0.16998734268893015	-0.3173942100141919	-1.402346404794426
Si	5.183519584870736	13.55854160426426	2.6387928534270597	14	1.2081647039323704	0.6942020359874295	0.002292654613976042
Si	6.679767472994186	14.913324577989682	3.8863433739428097	14	-0.0915138658810946	0.22091219732297512	0.3816705574652337
Si	5.39559504599346	10.85861471164945	5.47392658942493	14	-0.09611357329883952	0.8222459091466561	-0.9815531374462231
Si	6.685619175761426	12.237292138341104	6.7800916659925345	14	0.2182223069370362	0.08834137902656389	0.3027309392628553
Si	7.974993116333033	13.625039704321978	5.4134102299737235	14	0.1606519163820045	0.5584541028469113	0.17660073979341506
Si	9.374346559468934	14.921923330111543	6.859869880385906	14	0.14586086169625664	0.4432526436512925	-0.6451895694905107
Si	8.212702286522248	11.028297837169502	8.093782682508005	14	-1.229999044532132	-1.3544451700168754	0.04550007951906451
Si	9.509195798793996	12.186934985083022	9.493851333759903	14	0.6201326054824756	0.06358394878832602	0.3873429300225445
Si	5.269474596629529	13.50928977263999	8.127852596397268	14	0.3625641596101493	0.6362423800869275	-0.15748817128556228
Si	6.81396652312289	14.769258906806215	9.480278634285886	14	-0.6333087489166385	0.5567378900457124	-0.0018301127668814028
Si	5.631337393863687	10.580886396424278	10.883029315972768	14	-0.06524488282514168	0.05903566347698407	-0.7719818285798892
Si	6.8664042818093245	12.121233366790843	12.154019157017297	14	-0.1744435824298108	-0.41676280264833876	0.4860186097729115
Si	8.240172780068459	13.478633352031615	10.88153388082114	14	-0.7126242627168226	0.6649981362085277	-0.23096316224049798
Si	9.502287538582674	14.928604024104143	12.182773774226318	14	0.2617398071437345	0.4784094235779333	-0.06371893181763379
Si	8.226600080594444	10.631942503068446	13.423724874399014	14	-0.6102359068841616	1.9506649533587817	0.9909381860858276
Si	9.449378392728878	12.220891115862921	14.807815126150365	14	-0.9364749763101948	-0.7240790511391463	0.832662485240704
Si	5.492603274090371	13.533720631693216	13.499276859016044	14	0.4368390214301831	0.5429891614567527	-0.6162841750392779
Si	6.792152675585012	15.055017058606436	14.719389395445404	14	-0.19585574753600402	-0.056775147679509884	1.031138960429535
Si	10.744165158360182	0.09221308277375699	0.004778890593245999	14	-0.22308863797648049	-1.7240459306672058	0.22251965236913168
Si	12.097095092875978	1.3650397082980017	1.412292208143465	14	0.19660393918416713	0.03493129399006381	-0.7407058750234798
Si	13.52391902955809	2.5874604163744377	-0.050861049885260995	14	-0.4497104888839084	-0.059306143756663654	0.42909408087430106
Si	14.706808234495837	4.01506458009218	1.2953556811781188	14	1.4592423944239827	0.5801056378584103	0.8678678590578955
Si	13.596984040499043	0.133890210260433	2.6628661084222887	14	0.457862949633034	-1.199158893327488	-0.5440497424013138
Si	14.894550364944788	1.34280323778249	4.124718988058294	14	0.1978396124010303	0.4137306981442882	-0.1705383305590379
Si	10.709721385683011	2.6561529049698716	2.708574408926397	14	-0.5300660147860923	0.8827591868511292	0.24846184793889378
Si	12.067527739171508	4.090746602548485	4.0249637106067615	14	0.08924923631510817	-0.23002856545662417	-0.7499446277703679
Si	10.797578200841155	-0.016075927880001	5.351512218480252	14	-0.35619887416905877	-0.43904348713167807	0.5600605294509399
Si	12.131668903392422	1.4351626131254278	6.5918944031061315	14	0.28710067580061116	-0.374330051776211	0.7890958769223908
Si	13.503681890821385	2.8239017176307515	5.272920599370236	14	-0.15571822238317237	-0.7754433076724045	0.5374322315283167
Si	14.810334609286258	4.017714101067347	6.72635352891338	14	-0.12427309009669732	1.0961269898331938	0.2618992156735837
Si	13.530420921521689	0.06531150477436198	8.024748844584481	14	-0.20679477223110604	-0.3393401365848478	0.307100532754447
Si	14.906026204260542	1.3725493935159598	9.50300274669867	14	0.3312663516585188	-0.42952216991010567	-0.7506395975384039
Si	10.708079657962202	2.6446933203840266	8.051682932043695	14	1.4446701408009797	0.9266104165283828	-0.662540159522466
Si	12.103076833482492	4.1016372715875145	9.305930401281952	14	0.48643358617158344	-0.44573144629044725	1.2787307463280906
Si	10.823748315994646	0.13670227853469	10.824447269380734	14	-0.6069934859649229	-1.260472041897059	-0.8721284376839129
Si	12.173524832908097	1.3408526701934098	12.188381656044921	14	-0.980839141498818	1.8204826919047883	-0.921770824984268
Si	13.530859799229232	2.6517153637047146	10.815312111171874	14	-0.21144333064993376	1.3131735303073262	-0.2961545660749806
Si	15.002936903977998	4.0425350736383905	12.160618577360351	14	-1.5031599586184963	-1.3084051583805798	0.6554472512757735
Si	13.374099183986838	0.12642928923220198	13.50813568681645	14	1.0651446565043454	-1.6090902691401934	1.5523788848726232
Si	14.917046911138844	1.3230862504028729	14.842844069104258	14	-0.35952511312173435	0.11329781281658123	-0.321251382215478
Si	10.778560166847626	2.6509351366690828	13.529738222865511	14	0.03230285302127644	0.44919472515668674	0.3295385688833793
Si	12.160699851009896	4.012577606416103	14.897004829161046	14	-0.3477165406073582	-0.2861812485381262	0.18813111871215113
Si	10.929127729994693	5.4087288677599314	0.10832152011357599	14	-0.7449032044586216	0.1117762326881176	0.22685170772304922
Si	12.16435716523942	6.895532757806253	1.4884943819568568	14	-0.3188936786369022	0.05822910773805361	-0.25938107512303066
Si	13.522634905895279	8.119562684143679	0.021407479290153	14	1.1536058490388281	-0.3156314602066983	0.2694374393617258
Si	15.011145542582044	9.485041270149223	1.3821884483519968	14	-0.3335764897886719	-1.5834368086978838	-0.44874786705204495
Si	13.47999874934397	5.463182212955082	2.7933590801317405	14	0.11847550471029543	-0.20058555288294844	-0.7677315343751524
Si	14.889982785840358	6.753596456240864	4.111487637912369	14	-0.2520202577019787	-0.3809825296815621	0.4886125979304089
Si	10.713541247211626	8.386058981001733	2.6935062743007534	14	0.06118793574048002	-0.9231322252512866	0.08873604369320663
Si	12.125638398596182	9.594386838247067	4.057928302862214	14	1.0821160085015789	-0.33883928526848295	0.13214812858177888
Si	10.805689311065747	5.4039337224367765	5.380380618798636	14	-0.5185510624992772	1.178641472872706	0.22356403535017583
Si	12.127231362127265	6.850913524206048	6.7261747268843814	14	-0.7128109249630654	0.14012601127966634	0.4389504131190888
Si	13.538564541206098	8.122894903775023	5.442831291109013	14	-0.35669689726957143	0.6357271305807698	-0.74348781097988
Si	14.993362868061599	9.38986982653203	6.766909080036335	14	-0.9787971696535563	-0.6913164844866274	0.7385669725076487
Si	13.52097692344456	5.548649582816603	8.020701416837142	14	-0.3229318566527268	-1.1466993459278465	0.387630636707869
Si	14.742666168675091	6.703158029333237	9.62049193448092	14	0.6809001655031115	0.1538107193461545	-0.6879136265954114
Si	10.739922673853933	8.240514129396548	8.219740584572847	14	1.5133572194287355	-0.33459773282183464	-0.8781239981799662
Si	12.25829324938353	9.533171525409772	9.43032784927553	14	0.2238499422617763	-0.5527256801936214	-0.5274334600487928
Si	10.843904181081806	5.3270976141569335	11.013294721463495	14	1.2178225468464425	0.8440154578923499	-1.4046683700090516
Si	12.239242705930183	6.756229722486122	12.352960796373548	14	-0.40484624371051653	-0.23211038943434806	-0.5795880743574644
Si	13.449114762516873	8.119318863195044	10.836443260053576	14	0.08941558682932177	0.24081023850613306	0.8961744430800659
Si	14.928750316673325	9.421143926876946	12.188040306716834	14	-0.3770651936157845	-0.09207590950407898	-0.2177381678052523
Si	13.5578914150679	5.281308040003281	13.582501076150125	14	0.8564071570933355	0.5513653083687311	-0.13290634754069056
Si	14.988421430169263	6.648087004401545	14.936194982971646	14	-1.539046675345527	0.5863860768239361	-0.005713767352965075
Si	10.854307208223565	8.010932324161832	13.75569522333052	14	0.20990786655274135	0.9266109307494468	-1.0597304229211775
Si	12.221541305059283	9.516786757661501	14.98328493551802	14	0.1766233655202324	-1.1053153489158072	-0.9131241977926101
Si	10.899576631020132	10.87212239220383	-0.10570450859822698	14	-0.39790143113026455	1.6951744748061992	0.5154847622944686
Si	12.322889546041898	12.1468020569377	1.3238014585188689	14	-0.9683224865792732	0.3709924999601268	-0.11408662792880266
Si	13.51011876386535	13.607240775071624	-0.025747492175855997	14	0.4092857712668162	0.1169318130760785	-0.31309172237145605
Si	15.032715569171287	14.926149559887882	1.1816050812749368	14	-0.6365866510892954	-0.24938307497510284	1.4166990860230888
Si	13.62388561849844	10.771733180285846	2.612817795032478	14	-0.7265645386521334	0.23480876446784346	0.9382732073711065
Si	14.787789298902476	12.096006025972075	4.116932972431884	14	0.43961812917073123	0.16997114472541325	0.08804133103570261
Si	10.924170037372448	13.50751800707991	2.7138246866870035	14	0.28145118608064973	-0.5772432263054894	0.7464332692346417
Si	12.251417498632025	14.85305203948711	4.143509455833098	14	0.015898172636603633	0.48837039980925095	-0.9352845545469664
Si	10.802080761025948	10.941156230127353	5.414109183359811	14	0.6123316148306144	0.24988881139157595	0.09879009393711367
Si	12.123850378306193	12.343207958428147	6.781278261275891	14	0.3312221286470122	-1.4618086146440226	-0.042083851880183765
Si	13.588190231618274	13.535004755356027	5.531744663711243	14	-0.3242168950917368	-0.06199012060036624	-1.1759760079873085
Si	14.942209233037975	14.920119055091645	6.67224153304632	14	-0.0903262723337182	0.026376455258335117	1.675625846836049
Si	13.552706156226929	10.794717368377173	7.935559141573799	14	-0.24755476198194556	0.6269172382012824	0.7001415463875036
Si	14.844567070474612	12.156148526635375	9.405653169273668	14	-0.7352258211441163	0.9431403097421468	-0.3480011619662986
Si	10.79897610761333	13.549308917675948	8.155404363593023	14	-0.6855024440261765	0.5185502911676811	0.011072207950685687
Si	12.099387009793148	14.872508951188184	9.471273513916302	14	0.9986903257366061	1.0783984473191768	0.3351384362706618
Si	10.792165375781458	10.665085897352897	10.713167388423718	14	-0.9226655696356795	-0.019629360677202525	0.4945783336047485
Si	11.976062373973566	11.952769346013968	12.142787138650178	14	1.3416379801961535	1.0221349495983763	-0.2438451712260359
Si	13.438597952265749	13.457924826127549	10.913832029150324	14	-0.993721407594888	-0.9581020858211525	-1.4966072395995669
Si	14.55687460581522	14.968769461709282	12.110635282890176	14	0.32483884546868064	0.5829685636323952	-0.10670935543370176
Si	13.456640702464739	10.744555271877998	13.449114762516873	14	0.617430373791	-0.048723731369466165	0.507228171779877
Si	14.800191657823042	12.195289916256247	14.830978116270689	14	-0.26633822900881937	0.15900255231912952	-0.29228530967868976
Si	10.816319904426232	13.40655987961511	13.454202492978387	14	-0.26148578193810385	1.4373921129712366	0.18383685860643983
Si	12.067462720251871	14.856741863176453	14.831189427759504	14	0.15783321361952618	0.6552621316927228	0.21988375519491588
H	2.029997952253319	-2.742478524570589	-2.2546757054744897	1	0.4718896147071017	-0.1827531377139974	-0.24713361493050526
H	-0.6669559502611334	11.683621902707754	0.8115125142878522	1	-1.410072833392003	2.060753255404222	1.4034460665398534
H	3.6488975303781195	14.110649760353352	-0.8080908936420077	1	1.4533771889676612	1.6207234922717353	-2.2286124942196657
H	-1.2481096832246195	14.86457664299259	14.216022672461436	1	0.16652689203854287	-0.24921672446088927	0.14546028348737758
H	4.165313550533031	1.5113972963986377	6.879115480598162	1	0.09179925857163104	-0.012503542282412123	-0.02329755663745779
H	17.525336138418673	4.017714101067347	6.72635352891338	1	-0.1389237624319651	-0.020106043603557982	0.07850381585061332
H	6.831024236689395	6.60559714041942	14.867486239646302	1	0.06947743640316945	-0.1998224488239285	-0.08854012546781134
H	14.812096622008394	1.3650397082980017	1.412292208143465	1	-0.1969196709174813	-0.20818059799866587	0.1416077392756677
