69
config_type=vacancy dft_energy=-6823.1219052659035 dft_virial="-23.340247755855273 -11.051052099025561 6.447333980084254 -11.05105209902556 -25.23234870378902 -0.6243933128181377 6.447333980084255 -0.6243933128181377 -14.682703355965906" pbc="T T T" Lattice="10.859134003358504 -0.028451073344166 0.019731145139828103 -0.028700834675049903 10.837426485948203 -0.06352625155090501 0.022326491143360803 -0.06675143047579711 10.944802139851683" Properties=species:S:1:pos:R:3:Z:I:1:dft_force:R:3
Si	6.880525047722031	8.783421878323908	10.583262840127768	14	-0.18341416889180748	0.31938064598453825	1.5076689060184398
Si	0.3914303014365679	-0.6067354278467889	1.074662195338946	14	-0.18603901031314665	-0.02783041531687885	-0.6028015558509535
Si	3.2739540550572364	2.018785002213176	1.1879528491090527	14	-2.6303914092832454	0.21370898865804827	-0.22603435334177413
Si	4.067946411855985	3.5625912800526307	2.5830262544071445	14	1.0645430178594308	0.15533024259036202	0.5264312431949991
Si	2.8954917962876925	-0.944611470347699	3.9579352329522663	14	1.5142748469174965	1.1263289926973774	-1.138840505406282
Si	4.326552551609664	0.7564282526338095	5.15674075484764	14	-0.5853884879597185	-1.5128658812020555	0.4463045456663083
Si	1.785191916788104	0.5759018485897566	2.446796651273596	14	0.40913201916867137	0.31627217965247917	0.666410187250353
Si	0.42822666098874584	2.029171815821457	3.840527860897894	14	12.716102244102597	15.28696588035058	-10.956076265585239
Si	0.29307646117214786	-0.7131218096962012	6.793344226298761	14	-0.5204562515415069	-0.6324474286343889	0.22219106510921674
Si	1.6167213835939338	0.7640470591445985	8.08264913756167	14	-0.5475119928254252	-0.23014503652762683	-0.40929991234607704
Si	2.8800174529611895	2.05518717323009	6.582986546077701	14	2.049511354502407	-0.9828988539707887	1.252307239842397
Si	4.440565341401675	3.3752898284286443	7.979997230568388	14	-0.09680031552985108	-0.2402463951094246	-0.6689393835537826
Si	3.0395812799122743	-0.6549534816521708	9.331453620143511	14	0.011669989937620116	-1.0447105398619365	0.7825416152402693
Si	4.449081116865986	0.7154728239629996	10.735042800905914	14	0.6009452178098065	-1.1223131832978381	-1.7360105692745151
Si	0.041591777105148935	2.1314230187664953	9.194432382182944	14	0.8422766193643337	-0.5159197933146377	0.5541819542469534
Si	1.6925836730528436	3.130848413892571	10.602676896969257	14	-1.0700379841496512	0.6139508969612436	1.2706669887125102
Si	0.12408142918312154	4.70717253109428	1.1926885411263777	14	0.12645724406616313	-0.2647760254162974	-0.7720535624183212
Si	1.3701732865277967	5.878333817336124	2.9053334786433482	14	-0.5849133476965552	0.025496365907248426	-0.7596505503539269
Si	2.7063660010294237	6.963041847770753	1.2497188262366414	14	1.0687159217940312	0.8030433519525981	0.7478700028875405
Si	4.280983053830481	8.357959966676164	2.532724322367127	14	-0.5835077244180303	1.418250490973266	-0.2566173940144035
Si	2.120753866262433	3.7381539491250733	4.305073077153649	14	1.783079280149402	-0.44575612890152067	-4.231727738998936
Si	4.179573437978639	5.91439826759693	5.087019336371983	14	0.8388570492885368	0.2144980608808017	0.5905972902278066
Si	0.06635832785936245	7.60206707202551	4.037000982959469	14	-0.2899324912002222	-0.13165756168669462	-1.3167411960495639
Si	1.5668462176540787	8.786697009514977	5.34412147854621	14	-0.41732253227653504	-0.37290874475523317	0.47273730813115455
Si	0.22661388510511213	4.971753396250233	6.2549543577701066	14	0.08504007979549376	-1.2564541756132637	3.31795330867086
Si	1.6588268003056397	6.106104205995112	7.875046433412143	14	-0.5320233972663211	-0.9839362949674684	0.20148286863968012
Si	3.0125201826704187	7.326181791849985	6.479661369409862	14	-0.5558318325308923	0.26141147699435163	0.054479664849681676
Si	4.26813446223475	8.501182887074462	7.9867766218236405	14	-0.5718567606597793	1.8842648729132976	-0.3466413043624723
Si	2.8890457821132283	4.587811591064863	9.283467952967735	14	-0.07004050846828189	-0.41338128493128	-1.1498497212766239
Si	4.1590484861741315	5.770055764884973	10.703668434071577	14	1.3902524395895135	1.4569741653105481	0.03918698751597292
Si	0.4242511121523722	7.345424273516344	9.482375705046012	14	0.1262672393830042	-0.8075785246268072	-0.354952659420383
Si	1.7372171088006265	8.58701065363564	10.880778537476669	14	0.4215789971340402	1.0196905997705115	-0.5653806605793902
Si	5.4516904260014165	-0.6347760238732414	1.2905309136219005	14	-0.03662153862752916	-2.402032005400461	-0.964240599773006
Si	6.952560559224268	0.7070536952745524	2.2509761664288086	14	-0.41091842314511023	1.450980661698751	0.49335911546193434
Si	8.508960237734419	1.843253824786801	0.8752712093813488	14	-0.5277779881616925	0.18063660381445149	2.194827656091856
Si	9.685523970155167	3.0766892981686422	2.4712732617002184	14	0.5824178328728196	1.0109699247456334	0.05798099607465933
Si	8.160652858953203	-0.569690392882557	3.621945431458944	14	1.5670982057199385	-0.453627824949686	0.0677126297114198
Si	9.630485260178995	0.27263403919871565	5.238847077578646	14	-2.9429542552903474	-3.2888890199108425	1.881074131210994
Si	5.570484516401609	2.0967170529619326	3.682693902642888	14	1.0918656398755804	0.4696866916687989	0.6441210181194572
Si	7.179150554115121	3.41196347915304	5.256745191733552	14	-0.2880039050995791	-1.1417846781083834	-1.498952858983138
Si	5.539515197290835	-0.9077814473117931	6.685946854018685	14	1.0282274407649992	1.5383763881885646	-1.1781920436627442
Si	7.0935638615341885	0.5691734955195102	7.854810336016397	14	-0.2903940046051888	-1.0494151483767433	0.7222137142293789
Si	8.514128125446058	1.8102875009477863	6.514055676510234	14	-1.4769513965375667	0.4231280880894295	-0.7646222967114973
Si	9.590184640562633	3.352163015107625	7.698017773919295	14	1.6273008939017377	1.2491416949722305	0.7106596811416973
Si	8.438290812120236	-0.8451119857177029	9.361031877233145	14	-0.7736818434175711	-0.0859679917055352	-0.7858038336704732
Si	9.801021210987692	0.4711736647936475	10.592348722977793	14	1.5804072752991531	0.012840871300415552	-0.7371580067922074
Si	5.912425153082946	1.9973804561564261	9.322101687180155	14	-0.7447340257285558	-0.07798008169689916	0.05329052863911319
Si	7.134074063484728	3.2337587695673773	10.915366138128771	14	-0.7805582645963071	1.064998103501097	-1.85875076637934
Si	5.670866853040338	4.713023461749942	1.1461656066145165	14	-0.22334369162423914	-0.05827461630222024	0.71268391236025
Si	7.124914338154269	5.986182931849452	2.570488235596773	14	-1.2809393257980979	0.5367084653806949	-1.0664854879288026
Si	8.168973169028126	7.551702156693357	1.189998720184641	14	1.0440554222263627	0.09664219255266196	-1.29817087365373
Si	9.704826177357173	9.063455368429766	2.282880461652152	14	-0.3623433016631486	-1.7768399788689986	1.2932932297508775
Si	8.538243124902312	4.742395394261888	3.7485765980547416	14	-0.06588920181837078	-1.8688819497828515	0.6578666613820329
Si	9.533801563075007	6.100498692995013	5.304670047454853	14	-0.19100330046528857	1.4577629804227696	-1.363881383652351
Si	5.720002508257011	7.19858089973906	3.9702278341070736	14	0.6257386435225265	1.122782924239829	-0.33622729937374446
Si	7.173207320358915	8.90624798533963	5.087345112020962	14	-2.0813023004544413	-0.924913487017085	1.1444038630980182
Si	5.698069119730085	4.727242482909045	6.385813006370822	14	-0.47956770652465996	-0.24536443735971142	1.45374202881259
Si	7.026267299805767	6.1008537884524	7.815285062444605	14	-1.1953297461741912	-0.6915627963762975	0.6755201276207016
Si	8.301062163663152	7.543302574543848	6.619722094175404	14	1.1781861301205079	0.32322933353826794	0.4002745613407612
Si	9.877001865599064	8.504859808232604	8.243810351111582	14	-0.9345366200093352	1.5157650595610541	-2.1017798687767613
Si	8.239371114934828	4.594652879693422	9.233224660544533	14	0.33585706020764317	0.49377537741326627	-0.09076053202229122
Si	9.557525631752489	6.136897606255436	10.491123713327037	14	0.22462487340526893	-0.985719099396459	1.7400785721120533
Si	5.64398927608074	7.342814810568021	9.287267582953659	14	-0.18384431481186825	-1.5369422256409861	1.0479928129136376
H	2.0193724843001686	2.9544767352918306	5.783559165535154	1	-0.17817168514402554	-0.1322406883733042	0.8510039792630443
H	1.7099996392472612	3.4705292534888246	2.789836237810823	1	-0.33843510751215566	-0.11319728259856343	-0.49421786463886375
H	3.2767513819631358	5.015012058759325	4.158677101934296	1	0.4021517253350013	0.6498049606507086	0.20611085821594666
H	-0.2030016660671142	1.2881570950596735	5.215506338248131	1	1.8024924108691798	1.757259212082347	4.072483759890244
H	10.676806059975597	1.2455108907706627	4.310364759611898	1	-10.75412905532474	-13.866286723291903	4.506586353928195
H	1.0907989491517054	4.115854978794836	5.251748879197045	1	-2.1722276403277543	1.2156890436517838	1.7905699383891212
