224
config_type=interstitial dft_energy=-23333.658555620732 dft_virial="-23.519377608582808 -3.4493471539978904 11.523404485194357 -3.4493471539978895 -18.834081708538832 -6.329188513249056 11.523404485194357 -6.329188513249056 -37.40966433293731" pbc="T T T" Lattice="16.3852778749 0.0 0.0 0.0 16.3852778749 0.0 0.0 0.0 16.3852778749" Properties=species:S:1:pos:R:3:Z:I:1:dft_force:R:3
Si	-0.1332778502344366	-2.2039509563970494	0.057692563397522906	14	-2.452527999667106	-0.9269225487142486	3.9274520796597363
Si	-0.20162084425064453	0.03711265438664851	0.12511798185273643	14	-1.2155604883857765	2.699419930697517	0.13971566287057072
Si	1.3207353231063146	1.4050048072169254	1.4473935210792916	14	-0.31671389554648066	0.24709016325059482	-0.30695423686173057
Si	2.613632059103174	2.891215051581855	0.0520724130864322	14	0.3837819491541393	-1.2797440189347609	-0.5329070861648559
Si	4.177213585593382	3.9925842744990083	1.3849656123759226	14	0.20872721498972935	1.1126525121679138	-0.01094828067425455
Si	2.67571587697117	0.009962248947939201	2.711697947184451	14	0.8714362961317291	-0.30108697452115263	-0.3248357601422964
Si	4.122355675268216	1.302973681889923	4.074428737484134	14	0.24536160914385924	-0.09389625207074381	0.47405834204464675
Si	-0.0003440908353729	2.7986054610329205	2.8821048370834106	14	0.57020302571786	0.5538163430704282	-0.6587585778175922
Si	1.5175061251059887	4.157354628809003	4.22663158366408	14	-0.9380703471613467	0.180436828931076	-0.8203049817404762
Si	0.051679166417434606	-0.0062100203145871	5.552774048469112	14	-0.9770321058512748	-0.7932546397777303	-0.30312637526109415
Si	1.3198996739346947	1.382589747084062	6.84008340471063	14	0.6759009083186156	0.36093690705302767	0.35749342569775333
Si	2.748302657956977	2.6519408387746903	5.4377493977873135	14	-0.025783558371508964	-0.22890859197916769	0.25942941190304947
Si	4.040511212283091	4.048572768997542	6.761024438964238	14	0.05784189927683932	0.6423549258750475	0.7867384304543471
Si	2.7348503448216843	0.014369888696287301	8.14782520246215	14	-0.5753161828680384	0.07551696280019729	0.6400118775967966
Si	4.0071180159740445	1.3523752946827465	9.599429739955289	14	0.07163202266145353	0.6401268060046073	0.18173343734402667
Si	0.04376507720385791	2.8080925369224876	8.233159729634627	14	-0.9873679492382701	0.3011322259747872	-1.4163951813742472
Si	1.2860640751230263	4.088241526732674	9.639164038801923	14	1.3877540965499258	0.3552025708575014	0.09070036815779975
Si	-0.0578072603426472	0.0232834798602329	10.944415274316457	14	-0.32378777761380406	0.2220074881893582	-0.15724623027493637
Si	1.4367594757384816	1.4102480961368935	12.151240145636466	14	-0.6101765143512662	-0.444806362596258	1.0547897869379812
Si	2.8257886370273795	2.91333517671297	11.110578377245817	14	-0.25662536444089595	-0.7237612625215759	-1.6580402577778324
Si	4.349766946893953	4.138101927305995	12.338638568691698	14	-0.9199209147064215	0.1977493666042931	-0.05909634156253956
Si	2.7772554439619257	-0.018351511219888	13.53630406967964	14	-0.6802998124108569	1.4467514505576395	0.9496876294399039
Si	4.0168181004759855	1.4878651574302946	15.00413003226893	14	-0.8413682478547253	-1.4602163291192551	1.206608156771553
Si	-0.026937396826335603	2.730147770071588	13.502894488092718	14	1.0452782399166252	0.45544199686358255	-0.39674623350992205
Si	1.3993191157943352	4.107936630738305	14.861463417812175	14	-0.37227033930424036	0.2800090531065787	0.14600638625737702
Si	0.08579331495297642	5.394148173362205	0.0036211464103529005	14	-0.15935067997947758	0.706017293375638	-0.6004232834298164
Si	1.4196532456370858	6.754798033371776	1.395075328824736	14	-0.15333095109341488	0.4553432664192888	0.31395484242742977
Si	2.744730667380249	8.224164212081309	0.0671140981755904	14	-0.6436600189355546	0.14139356620249935	-0.3280617259874862
Si	4.103758384880205	9.707048245037633	1.2757085795060894	14	-1.0604351628894304	-0.9892343145901654	1.002750615258184
Si	2.924264157055528	5.444106885602775	2.776010162843433	14	-0.8903676017145115	-0.0019751231069377543	-0.19427117532719676
Si	4.1441153242860835	6.87532813741954	4.132940564775402	14	0.1753758652188965	0.08542934514096416	-0.13326604517497925
Si	-0.16552407709223982	8.245989402210675	2.621988550819373	14	0.6210988268617872	-1.3932878865304803	-0.14172163924135026
Si	1.2229643700267863	9.493531689049812	3.9384964722339637	14	0.4825748713071052	0.6262407803915514	1.1526087743956748
Si	-0.013927486193665	5.550807815124124	5.48418527528478	14	0.5381770807395635	-0.352418578016845	-0.35098827212724665
Si	1.3481151224352725	6.864595780411481	6.8618758242842475	14	-0.7052523895428939	-0.3195536813725842	0.6390739383760066
Si	2.5290184841571905	8.105420103321908	5.366440668475748	14	0.8810159774440688	0.5823941787038741	-0.29580798107782463
Si	3.9213247010210686	9.503051535495128	6.707542891980564	14	0.6628759458772774	0.27978202450680967	-0.7589234417693891
Si	2.6509577221021963	5.489494105316248	8.279661148243594	14	0.390929364833619	-0.5081031189203234	-0.8267016346664727
Si	4.0605995629577185	6.911637913190318	9.491532685149075	14	0.6167081503065704	-0.38020322765902526	0.22368616285288287
Si	-0.009011902831195002	8.303108480882576	8.212940296737	14	0.6076236638788911	-0.2399502037765436	0.10885134327591714
Si	1.4974669302649861	9.635182416278322	9.497873787686661	14	-0.5059834996943934	0.1319712365357527	-0.41212092910334347
Si	-0.09072528359332131	5.44084621530567	10.878185981146112	14	0.3900135371185822	0.9228074946493519	-0.07865319706971391
Si	1.3884556765632763	6.700693845828856	12.268575120498625	14	-0.5221063869359779	1.2894663965923687	-0.4586898171039936
Si	2.6859730609208574	8.218101659267596	10.864537044676318	14	0.16461501812248075	-0.7075252466459049	0.5906901071298639
Si	4.089634275352041	9.491958702373822	12.266232025762514	14	0.003675395055151679	0.08133820235554455	0.18499411311103844
Si	2.8585100369435548	5.494000056731846	13.5424649341606	14	-0.36963778456694074	-0.6882447849606466	0.5536633623038794
Si	3.958076879294469	6.896973089492283	14.990595792744262	14	1.5228034603749596	-0.017125875426974344	0.3309935573840511
Si	0.1078806695283416	8.26496355398981	13.66745183379034	14	-0.37343659267745954	-0.428399111106265	-0.6825922099143009
Si	1.368858884224896	9.639590056026671	15.051417944215892	14	0.7729328804378119	0.032396955475993854	0.3070012880890893
Si	0.10493131951085961	10.895226670136006	0.2317369849847107	14	-1.025307950673971	0.08781661643072167	-1.1982973159347061
Si	1.3272730489784	12.39546271236185	1.5138194375841363	14	0.30629089168913237	0.2562633528118191	0.03568437073833519
Si	2.810779722493971	13.556621814244515	0.0199572684516282	14	0.6198582685448158	-0.2838893652557462	-0.14016200675414842
Si	4.134628248396517	15.025414508228426	1.32232469506018	14	-0.7382065035417639	-0.11916687493088325	0.5054258269504532
Si	2.74212540819814	10.898683963767612	2.7944599857305708	14	-0.3241904127069393	0.3728668357385147	-0.2432702720764508
Si	4.029041517770661	12.319582490523189	4.130581084761417	14	0.43671226593789975	0.08373215851913443	0.9988877866251934
Si	-0.09688614807428371	13.810315071581591	2.91661223228795	14	0.03215938534441218	-1.4981604443234682	0.6889240709862295
Si	1.370349944511512	15.033934852723373	4.090830400636909	14	0.5081139175626681	0.8680786896941477	1.158468837641356
Si	0.0387675674520134	10.971926155868415	5.47689382663045	14	-0.30312354704524197	-1.1575473534946152	-0.18437781916579898
Si	1.3164751508588406	12.324022900827288	6.840329183878754	14	0.2115531168471041	0.18181776959852752	0.40288346190911545
Si	2.677862348372782	13.749738699278087	5.585233283939289	14	0.3711300540947547	-0.6372034592555988	-0.6976401180215316
Si	4.13564413562476	14.997379297784471	6.943212343655251	14	0.45800127509925787	-0.20395935728404677	-0.25867402115998994
Si	2.8206436597746607	10.98983526458568	8.05439634801947	14	-0.42136225295555174	0.1969024445118363	0.7850343018481529
Si	4.096712715393998	12.295233967601089	9.611325451692467	14	0.2015450893884277	-0.30126155257239073	-1.026190096909314
Si	-0.09500184111867022	13.513233598431778	8.311743522322649	14	0.11821402329923637	0.8766872645270675	-0.5651762577064385
Si	1.2612731496983025	15.108618949277169	9.525106119514744	14	-0.2137552685538109	-0.5504276262584731	-0.6519369211821754
Si	0.2403228705911583	10.960784166913482	10.959080098014493	14	-1.0984875216276218	-0.40434462106255564	-0.013884482949863657
Si	1.568415183463303	12.293775677870222	12.376537716416342	14	-0.6473482695173071	0.7517626563422447	-1.8763121870475474
Si	2.6413395639896304	13.677135533014406	10.7082706495834	14	0.43941784006629164	0.5895174259933444	1.8444315095198391
Si	4.070283262181785	15.202244427054348	12.133019716639579	14	0.59985841159098	-2.1343272339139836	-0.365267419743753
Si	2.8193983786561683	10.968960420573058	13.630814352462062	14	0.8533364860094826	-1.1021086663605184	1.2371140642845777
Si	4.259680689137753	12.277734490830694	14.995724384719107	14	-0.2206409457116995	0.35677145932385573	-0.12867353685213076
Si	0.019842571506503905	13.466748565100687	13.573220100731788	14	-1.0130496918391012	1.1203935960658153	-1.6596757378719784
Si	1.5153760389822517	14.806539966375512	14.836934656833451	14	5.276317436910825	-1.6724831848032322	-7.283211692289649
Si	5.429753382184363	-0.0097000845019408	-0.005751232534089901	14	0.3892370633118975	0.8164390677811016	-0.9408977916819137
Si	6.7909111858080555	1.342118110733059	1.3848673007086731	14	-0.09243972090687994	0.4152085694823094	-0.32248885520606524
Si	8.14207396992806	2.7376030715046675	-0.0537600967075469	14	-0.9578094940357197	0.08274459696566556	0.35261218224745217
Si	9.402511470454742	4.13567690618051	1.2978123193593296	14	0.7248041028394281	0.5319735178231102	0.07139265275614774
Si	8.122198627865806	0.07101379430981661	2.793411327946577	14	0.5795417944617018	-0.2756358600675389	-0.37824147429975224
Si	9.50446066939237	1.4494089102579042	4.073068759420517	14	0.4507386739014356	-0.28076341540751015	0.12219666544014575
Si	5.549906624841004	2.7501705796347156	2.8447300182507638	14	-0.06240535410957015	-0.3713830508582573	-0.5228931451639433
Si	6.955026129003054	4.154880451849893	4.128123293080182	14	-0.06593573882466547	0.22471614764413417	-0.5168268792715859
Si	5.5163823463089585	-0.0742580793290468	5.531817278067114	14	-0.6477264791099009	0.5404738491220518	-0.24503302188394435
Si	6.887240234434593	1.3511300135642543	6.7994479155808785	14	-0.5751567743381893	-0.11508113146663594	0.560131749068308
Si	8.211088760337137	2.7684893202988543	5.519888795774187	14	0.1949733441901292	0.028435396398709692	-0.26539309069313294
Si	9.564611024471128	3.9807541038733305	6.9806363183215225	14	0.34770677040714165	0.9957680074297259	-1.3577603532166742
Si	8.285510692444934	-0.0539403347641708	8.136715984062967	14	-0.49367279031099237	0.4404424255363706	-0.40977916637775263
Si	9.505476556620614	1.242856097366915	9.58156978707165	14	0.8741213014175597	0.22625855372569104	0.27874689750491805
Si	5.320791284316278	2.6334746306096783	8.147808817184274	14	0.9135489443914986	0.34899232306721567	-0.024728890969184226
Si	6.739658036615369	4.071643240245401	9.486748184009604	14	0.17148552575898043	-1.019903744401552	-0.015451314531961895
Si	5.5309488583397455	0.03711265438664851	10.81701973883911	14	-0.04762766917148705	0.8361807857607946	0.6246549226300842
Si	6.999610470100657	1.3066112135781507	12.244816467580021	14	-1.5958835295527205	0.2038994505300873	0.48202696876338164
Si	8.21249789423438	2.703996866583248	10.891834917615903	14	-1.0903605148211657	-0.32541220195507364	-1.4485177999125813
Si	9.420518890839256	4.0135902007346305	12.193759941721833	14	1.3393101014392914	1.4901095422344885	0.5502077967536004
Si	8.366847211815937	-0.008520344494948	13.641284545024122	14	0.09142259164222936	1.183015437243342	0.1883913145705501
Si	9.531283369273583	1.5601897739701032	14.926398274030404	14	1.2531076249285589	-0.3039355021053447	-0.02067117255292653
Si	5.40222611535453	2.6495322029270802	13.703548600948743	14	1.747962352355223	-0.14194352563047902	-1.0023083851431185
Si	6.6811462093241	4.068513652171295	15.01251929454088	14	0.9372802464964654	0.30105175037826665	0.0009525945211148634
Si	5.46943852519737	5.539420047001069	-0.029001941838573006	14	-1.068472695230745	-0.3693595909713007	-0.015173120936321874
Si	6.689846791875672	6.978325994141161	1.3397422454411987	14	0.3091797856268508	-1.009092760751393	1.09509032016811
Si	8.090312877121251	8.205206445580048	0.05451381948979231	14	1.206910004536138	0.8673960612316484	-0.9100751239934464
Si	9.683617297676527	9.521288349769893	1.3351215970804768	14	-0.9990914181665492	0.3170201141901103	-0.417927770468898
Si	8.294883071389377	5.652085217668881	2.7519074190894552	14	-1.451964109483708	-0.6438883330879838	-0.6042706854308861
Si	9.635182416278322	6.915226289044922	4.106068709060566	14	0.7901186626187457	0.2340518310615919	0.5444408075205083
Si	5.3862832399822524	8.37153340128816	2.7079293332732237	14	-0.10097630479083558	-0.8813242529719546	0.3040519731763474
Si	6.892336055853686	9.4789815622969	4.061484367962963	14	0.029700380216222545	1.2315743607617866	0.19824790392586977
Si	5.5029791890072906	5.395590077815196	5.43342368442834	14	-0.23274005312725232	0.7776151203363336	0.3732216482726951
Si	6.932627454148066	6.811245315650806	6.737593491603131	14	-1.263840704087517	0.5649214611692118	0.334741714719763
Si	8.289525085524284	8.284216255492817	5.503470747343537	14	-0.29326978590577446	-0.7929445644761205	-0.34379123411508816
Si	9.541327544610896	9.591958053244335	6.943818598936622	14	0.6395565348445983	-0.1690522316839923	-0.11877709536434879
Si	8.094278114366977	5.386021075536254	8.14351587438105	14	0.6577280788052768	0.22601815537825717	0.2973110492479832
Si	9.508491447749595	6.705199797244454	9.51824068808516	14	0.2151392945476466	0.29820296568354254	0.28908839732361763
Si	5.373207788238083	8.34759451031293	8.079596905391066	14	0.7783653688687528	-1.5225921155176434	0.029049890570225084
Si	6.761008053686363	9.53569100902193	9.5813403931814	14	-0.1086266286709362	0.3703589796092423	-0.7978882857857013
Si	5.484562136675903	5.433964398598212	10.836698457566863	14	0.11893727522579402	1.3659441814507054	0.1067065272178496
Si	6.867921991820086	6.803216529492105	12.297953923728322	14	-0.07173923775330372	-0.24141341981423983	-0.8581688784587009
Si	8.153854984720112	8.203043588900563	10.810039610464402	14	0.13285132588683937	-0.9192825092554286	0.764878378801384
Si	9.349390399584317	9.678357623478684	12.194382582281078	14	1.308671010670683	-1.0622951004780252	-0.19638950900046676
Si	8.170551582874635	5.359935713159413	13.62616093354559	14	-0.2588046333102535	0.4819832599729391	0.5709656155558159
Si	9.457893709671904	6.897841509219653	15.03552422467724	14	-0.20094216519085295	-0.4283572020895466	-0.7291639261308032
Si	5.516349575753209	8.158950806139206	13.621966302409616	14	-0.9455867164542677	-0.2630556988465863	0.07110263207603505
Si	6.870347012945571	9.538509276816411	14.883583542943292	14	-0.14910816771560367	0.01743106562847592	0.9996709453057107
Si	5.502602327616168	10.814807726325997	-0.0214319434603692	14	0.5805414402101754	0.6982749239250761	-1.5688864094701016
Si	6.7406411532878625	12.13483848248369	1.3490818538298917	14	0.7441557841420545	1.6941930839054984	0.7805505512803467
Si	8.14461368799867	13.643988115873482	-0.012501967018548702	14	-0.4183391473201216	0.6754522504402497	0.22506016153597
Si	9.487796841793596	15.14543666866207	1.35914241444508	14	0.00910916903875263	-1.0015247122415374	0.13751094005854375
Si	8.27579422266512	10.875826501132126	2.6544150157338002	14	0.060332786110998786	0.28693843905490984	0.8725652684778061
Si	9.670722083988979	12.329724977527754	4.1226342249920895	14	-0.6333599139125095	-0.4190153480193206	-0.5091253903956143
Si	5.407534945385998	13.731108638334325	2.8387002359928006	14	0.14884720052560865	-1.1130525761557286	-1.1705648597305252
Si	6.823616200446356	15.063723287899942	4.088552847012298	14	-0.07969243784011776	-0.48449702964444785	0.3788603393503119
Si	5.484381898619279	10.87353256222964	5.483218543890161	14	-0.3003727214632155	-0.052815388375949825	-0.42940055662846266
Si	6.891369324459067	12.101641909509144	6.9583523404116585	14	-0.8351659704909321	1.2438166787436717	-0.9101440296160264
Si	8.077909221769952	13.604237431748974	5.429704226350737	14	0.7483034912445174	-0.45916264337236884	0.3506486291144551
Si	9.539705402101278	14.961511924516316	6.742525460243476	14	0.07536886713375676	-0.5120032285804561	0.22403789006067912
Si	8.258163663671725	10.910120887724291	8.336534447747372	14	-0.36953391191200674	-0.2816933842018077	0.006248043038491847
Si	9.5689367378301	12.447780904616407	9.439640510119265	14	0.14558652475859685	-0.3942687164234273	0.9795741576813052
Si	5.547809309273018	13.618115762109015	8.307860211466298	14	0.19490546700967729	0.04042394628549616	-0.3069287829190611
Si	6.948406476741594	15.137670046949365	9.57083743006359	14	-1.3831631308902692	-0.16145641523667886	-1.342285641626299
Si	5.398490271999053	10.868027108863673	10.896471951254501	14	0.15387525408969024	0.5058081503115593	0.6393734721458038
Si	6.761909243969482	12.378438408649831	12.176440703008064	14	-0.42424111958252153	0.18643341786925735	-0.21928571609744943
Si	8.145236328557916	13.785474990323243	10.81933006301947	14	1.1747421345441695	-1.5580617989617462	1.4202014456901946
Si	9.509196014698217	14.847535931618513	12.481436265371451	14	-0.0684590215858588	0.7791169029538321	-2.4946244499633585
Si	8.050742431053367	11.002156993547604	13.545102963898461	14	0.812538958120969	0.6163579657619662	0.6744137810014419
Si	9.50031519409002	12.348551661806013	14.997149903894224	14	0.06522071443513229	-0.7816445565940696	-0.01950774739555952
Si	5.503716526511662	13.833057837271953	13.59589732531065	14	-0.3619658634021509	-0.18605880782411177	-0.27589245637848964
Si	6.95812294652141	15.204505595401082	14.896740921076836	14	-1.3908283671812267	-1.3973494616047184	1.5493604072267693
Si	10.849134883473914	0.14537018530611281	0.0488608986229518	14	-0.5416154198841975	-0.9199417406595147	-1.28708658150804
Si	12.170296223804977	1.4635985608975677	1.3141648266784798	14	2.1843524587965084	-0.4775912978650622	0.14322984962214913
Si	13.797108537614422	2.6173187466250263	-0.037784450779519405	14	-0.5769442067567563	0.6619205231403105	-0.11625921192432777
Si	15.054137900343125	4.120405827201104	1.3766582764933482	14	-0.056403365850216464	-0.7849779946416416	-0.04157785835317862
Si	13.526423747121074	0.25210388538321143	2.9951140985865963	14	-0.4495377106063945	0.45348924237293003	-0.6349581129795134
Si	15.110191935953159	1.4473607505235417	4.231809331472549	14	-0.4141335903479554	-0.1352463104925573	0.45725051234577463
Si	10.842728239824828	2.733752531204066	2.5593476335036307	14	-1.0593403862441113	0.8863049981981456	1.0895063936338125
Si	12.162005273200277	3.986243171961422	4.027648769151295	14	0.5933378313885525	-0.2267144106989533	0.21166341726533844
Si	10.826572355840176	-0.018040190940264902	5.442501128371035	14	0.4533208349744603	0.059138507689789996	-0.8014328115800574
Si	12.345717008733656	1.1919961948432252	6.773149544591664	14	-0.5603590347786092	0.7584845540912399	0.2444740635873441
Si	13.590064166387187	2.766031528617619	5.4929022431142265	14	-0.06313117714144795	-0.3210840032591364	-0.14420789808593346
Si	14.863298568934164	4.308885678596078	6.723567693742217	14	0.6475953527385733	-0.8795712733646777	1.3583221397291265
Si	13.656866944283154	-0.0871205224608433	8.211514777561886	14	0.9200106462820946	0.479376416288841	-0.16965695565529115
Si	15.040833054708706	1.4918795505096452	9.508753612195594	14	-0.06347621947541182	-1.852378024732821	-0.2816625309379659
Si	10.898389028765862	2.5452235239754666	8.168355955639399	14	0.4465865959199285	-0.3018166542110107	0.1306951969653632
Si	12.172164145482714	4.024551951632938	9.46018764857439	14	1.1064831449522183	-0.35045476777331597	0.17492797867212673
Si	10.86771578858405	-0.1606576495633945	10.978824357853748	14	-0.916302341078845	-0.4792787142866754	-0.47219763312445556
Si	12.154255036765448	1.2570293627287032	12.18425648055439	14	0.10326973073640766	0.8357894635310682	1.2831463626049129
Si	13.531339330483544	2.5061118656880805	10.843907979831819	14	-0.0036705099550433974	1.9084394335754578	-0.13997971538694992
Si	14.969639022342268	4.038168117546981	12.062792415667756	14	-0.5459600736541838	-1.1367476256756814	0.614948742935993
Si	13.47869343267149	0.0063574878154612005	13.669975166583074	14	1.003113912439921	-0.1449728019186775	0.2002428245437727
Si	15.190774732541916	1.3015973185484313	14.833280739867348	14	-1.8345687495117513	-0.07149266875310152	0.20707630826366227
Si	10.970123775302174	2.9545933064019683	13.51239794926016	14	-0.1997234612691028	-1.6972835525003165	0.37588325650011245
Si	12.283829814200157	4.137086040077752	15.01704163123435	14	0.9951146895678761	0.3018544494592169	0.03386505661379841
Si	10.806303767108925	5.556673744603338	-0.0422248610836173	14	0.6140354863262765	-0.8977826694578184	0.2569112713524964
Si	12.217584135751936	6.709001181711431	1.457650705028979	14	0.805403369525962	0.7330298400901777	-0.7826146346313616
Si	13.692390226715935	8.184593766013425	-0.0425034108074906	14	-1.003326028628833	-0.7656877627561667	0.08919498599285305
Si	14.860136210304308	9.585780803485498	1.3665157894887852	14	0.44394144276656017	0.27578909794461964	-0.34551181779533124
Si	13.6123809148528	5.31638364456793	2.791592562102463	14	0.1288301171661278	0.7748678943017554	-0.3288096605251173
Si	15.027020265460164	6.791910687758425	4.045607033702185	14	-0.39736586989207767	0.26564480190397544	0.18649563861800494
Si	11.01595339751827	8.287755475513794	2.711435782738452	14	0.14069525399754715	-0.9541230432276914	0.736001780729737
Si	12.41043885633951	9.464759141101487	4.196138581538891	14	-1.0985970507142602	0.626233067075591	0.1618189410868197
Si	11.051411138839553	5.4385358911253086	5.427787148839375	14	-1.53642337658738	-0.19724722973526815	0.5608007506726106
Si	12.303574074039412	6.787421121620702	6.850275047548818	14	-0.6872253417012077	0.948003812565739	-0.5193347354008583
Si	13.731616581948446	8.15090563470263	5.567094781331774	14	0.01946866659469327	-0.5854442809451658	-0.5046472962595124
Si	14.981927980748441	9.571836932013959	6.886584823319597	14	0.489899179032611	0.8752117071838346	-0.2545155154151824
Si	13.578496160207507	5.617626978297966	8.258278360616849	14	0.7323451547434223	-1.311119731377592	0.570116893689635
Si	15.027151347683164	6.963562858775877	9.582716756522894	14	-0.5921440671884077	-0.14036795229029228	0.39886636695691613
Si	10.895554375693505	8.124050164265668	8.218544061770219	14	0.5708164914472473	0.40571219198234243	0.14869987619076414
Si	12.480256525364458	9.577129376767552	9.564758491972	14	-2.7946613850717625	-0.6185647454582494	-0.10661730986324047
Si	10.934813501481765	5.325116997675251	10.888607017874548	14	-0.7709911817000361	0.8247900178609426	0.13440684460552896
Si	12.286402302826517	6.802643044766484	12.214225153787583	14	-0.16722109047498285	-1.1668105317420445	0.7537218385961975
Si	13.563012072615727	8.28115220853021	11.04801938631945	14	1.3187428015412992	-0.7138090280483468	-0.7282758663532239
Si	15.080354344942965	9.576473965652555	12.194202344224454	14	0.6913889896566555	0.37780541483745517	0.9997637622077677
Si	13.839644718977663	5.36531008430238	13.545758375013456	14	-1.25656601869469	1.3149712471471737	1.0371378633625044
Si	15.142208768920714	6.908197004836589	15.00262258670444	14	-0.19452828585921156	-1.0693581839030042	-0.026878335016828018
Si	10.81679034494886	8.136060572947972	13.535091559116896	14	-0.30028196144541425	1.2594184029368622	0.5434316486823502
Si	12.313634634654601	9.518027679472787	14.93894939688258	14	-0.7428329504548383	-0.3695742782655331	0.193476446672739
Si	10.948167502949808	10.95067445046467	-0.0436831508144834	14	0.06175640712676477	-0.33023019621449917	-1.2999770751411341
Si	12.36877109470364	12.242850234235032	1.3053495471817835	14	-0.09938684748192003	-0.08358097752630973	0.08065017457187293
Si	13.816410394951054	13.68200196054325	0.1328026771760645	14	-1.525882616106369	-0.26763278053751394	-1.7079963199272457
Si	14.786681009591133	15.212731004894282	1.702119050922487	14	-4.878200290044201	4.546953735896647	2.9982641300479047
Si	13.54674149168595	10.89206431150615	2.771323973371212	14	0.7851001221443487	0.33760592604640793	0.3725819572690423
Si	15.018352453464344	12.218583637702304	4.1267141591829395	14	-0.7247498525171728	0.5133836550268437	-0.06713901611449478
Si	10.97308951059753	13.587753842206824	2.5393903650520024	14	-0.46057906529323844	1.338207097256948	1.0381040847418161
Si	12.279110854172187	15.032443792436759	4.034022642244631	14	-0.9925093885469702	-0.6625152198008606	0.4851907138598239
Si	10.94505430015358	10.888246541761301	5.562343050748053	14	0.1253141306408253	-0.22805087124436627	-0.648005701147669
Si	12.327545735570391	12.22929960943249	6.869511363773951	14	0.02613939934781746	0.14762335439321814	-0.14839468598926256
Si	13.570467374048805	13.613544269581917	5.446384439227386	14	0.31737852627173896	-0.14357746306143312	-0.43305589706211717
Si	14.963232378693181	14.85512231527459	6.822583927940237	14	0.6192221770886112	0.6929514503597095	0.35363445372274305
Si	13.6779220263524	10.971942541146289	8.310596552871406	14	0.13171926821437818	-0.5307992940233985	-1.7821824786137344
Si	14.990497481077014	12.128349912445232	9.663463405890399	14	1.2478142332954378	1.0861775835758167	0.9494436315450218
Si	11.027275624529826	13.66227408598187	8.122067545642807	14	-0.7403268940992901	0.3830903218230195	-0.39483564514652
Si	12.293349660645475	14.989432438015147	9.533610078731817	14	-0.06617819405635543	-0.08301096347683289	0.5817627152372458
Si	10.827997875015292	10.879464032820353	10.778481565277346	14	0.20610365912105025	0.4945909320208172	0.26384785639572395
Si	12.101904073955144	12.285599424210647	12.228939133319242	14	0.4306606553458673	-0.27553584407058507	0.4844214391480356
Si	13.568484755425942	13.530438140200424	10.900388032666601	14	0.21085120509470365	0.4464891510282949	0.17248851394437023
Si	14.84773255495301	15.010274511472018	12.285730506433646	14	0.7615639669331812	-0.37528496029211394	0.03548896673400394
Si	13.606416673706335	10.928161078664557	13.613708122360666	14	-0.23325478841234593	0.1675445355242575	-0.5557665264557605
Si	15.09170934251027	12.113193530410948	14.960201102286325	14	0.0033000136784100595	-0.005028824895677627	1.009645805505757
Si	10.915462488311508	13.732763551399689	13.754555970973307	14	0.9945549599396799	-1.2491476085144668	0.9575050751658142
Si	12.296888880666453	15.024873794058554	15.198262804530748	14	-0.2749586309262118	0.3580624113051021	-0.09743614987552368
H	-0.18298914477909572	-1.1190391065774457	1.2753120557815167	1	3.228222504329289	0.43349529896133054	0.9313337941120269
H	0.9945699817285553	-1.141485298738271	-0.4534134093542328	1	-0.8010468886715031	3.193812630498151	4.244280389392963
H	0.3877346615204837	13.74436924371848	15.34815532653033	1	1.749308840211385	-2.8583373794305498	-3.7547393653314485
H	-1.1163011266445497	-2.423756182033258	1.341225113088877	1	0.8781689925230689	-4.332816658202794	-0.5069569201686015
H	9.585346593621813	9.538509276816411	14.883583542943292	1	0.1367396084624993	0.013172286776182639	-0.06784966962498369
H	12.215314774766265	12.348551661806013	14.997149903894224	1	0.2328266993765413	0.1164957536137814	0.18924389309471124
H	9.673122527197654	15.204505595401082	14.896740921076836	1	0.09329178520997701	-0.011003816549169747	-0.11164484920625803
