225
config_type=divacancy dft_energy=-23047.67290500032 dft_virial="-85.32096756197456 -0.46489998948619315 -3.4118931431783324 -0.4648999894861931 -97.27835288477623 5.649716821383058 -3.4118931431783324 5.649716821383058 -69.1873619946359" pbc="T T T" Lattice="16.249967316 0.0 0.0 0.0 16.249967316 0.0 0.0 0.0 16.249967316" Properties=species:S:1:pos:R:3:Z:I:1:dft_force:R:3
Si	1.341564801674328	1.357294770036216	0.96662930579226	14	-1.4154168757999308	0.061072750222137394	-0.3343727611063217
Si	2.8568255039893797	2.939602837497084	0.06067737795794399	14	-0.3254939631042544	-2.1193821700195583	-1.4560076868207046
Si	4.149217904565491	4.073801806251935	1.37791597856022	14	0.38763937846595753	1.6314540003253732	1.2977893216242202
Si	2.6763696169452	0.21542581670821198	2.78183190482604	14	2.0905600793806984	-8.727977221098007	8.873705927980808
Si	3.89601091384758	1.447352088901488	4.327805045368332	14	0.5539420701205835	1.512532408842032	-1.2089630321342766
Si	-0.109557279644472	2.888220440843892	2.69156333638566	14	0.02887839784537121	0.4447590542583672	0.4341424461704118
Si	1.289451156491916	4.184220334164157	4.1831315863539835	14	1.0800195292235302	-0.3452158835729822	-0.9107886057197875
Si	-0.062903623480236	0.07525359864039599	5.274430641394596	14	-0.33174509146913034	0.2076758900243208	1.6493758899594655
Si	1.3295073259258559	1.3544997756578638	6.968067234937379	14	-0.2882147357358313	-0.9655670330076704	-0.6472729361314267
Si	2.5578586053096117	2.785748146949196	5.67270109034244	14	-0.6683536857618527	-0.6226664297754816	-1.5424107095464088
Si	3.9786094977148077	4.065026823901296	6.76754263825794	14	0.39388485039912924	0.12307855456495652	2.3005149971607985
Si	2.8433217811497835	0.064902369460104	8.360656933983948	14	-1.3018907488309206	1.1527540418462632	0.024630417635422553
Si	4.232320237419516	1.4899595032040398	9.649994340704652	14	0.7707777799584637	-0.33907094185782827	-0.8019891987713375
Si	0.044411160674628004	2.866136735261448	8.116306175453255	14	0.8757326131216966	-0.7111993561483965	1.47416097593361
Si	1.5587943647546159	4.114264224868776	9.53604956988486	14	-1.9206640109306339	0.17091268349365146	-0.7504429079814127
Si	0.059166130997556	-0.259999477056	10.877208122376286	14	1.5232163798893754	-0.5953893163234986	1.2341737482404562
Si	1.493745745588668	1.38847845731562	12.041030781548207	14	-0.9796885718680518	-2.071566295938637	1.1550230422912937
Si	2.766524435614368	2.751915714997284	10.826264474840627	14	0.9267425713418382	0.2662425838909098	0.38887273768803254
Si	4.021330661788571	4.161047880771539	12.193682974514712	14	1.1128486875038408	-1.538504172122976	0.13751453960599194
Si	2.627083466075772	-0.042802413910344	13.732863628718915	14	-0.6073891790736937	0.8165228858145385	-0.4501285506089645
Si	4.101394250754504	1.442038349589156	14.893290044721791	14	-0.5478359520957639	0.5390430290113893	-0.3947587690974475
Si	0.13056848738406	2.50972620211962	13.534874026940772	14	0.368288468494927	0.44348610001436195	0.39193518123486093
Si	1.452438328671396	3.9569157913479476	14.897628785995163	14	-0.36179282801410495	0.6696487515116114	-1.2034063593163724
Si	0.14883345064724401	5.3221405454343715	-0.037017425545848	14	-0.7151382894988633	1.278598591514635	-0.06390919361132476
Si	1.4823870184347838	6.760165153096476	1.281293672899284	14	-1.7946050310785617	0.7526864544837739	0.3199429467180546
Si	2.783960650544436	8.113949930192437	0.019727460321624	14	1.2867911615067549	-1.1774006574452025	-0.5143218513581657
Si	3.889218427509492	9.540745810439184	1.4846620138590239	14	0.8667545704542715	-0.5742946827243437	0.24924809194579509
Si	2.740768237418508	5.5187651499579715	2.6051785101338036	14	0.6073490698306994	-0.9787825143532315	1.779068870071035
Si	4.14772290757242	6.84294248660418	4.052855598381612	14	-0.9757447534174766	0.22038486362181275	-0.17984033249680162
Si	0.072117354948408	8.257112142246395	2.7844318995966	14	-0.15110977320733893	-1.108163876499999	-0.8901716834891162
Si	1.393304697608472	9.609271922610755	4.1851790822358	14	-0.48579183828367445	-0.7749761378357335	-0.596507490027231
Si	0.16891841024982	5.457015274157172	5.7104010145155595	14	-2.4596954699680826	-0.6632587834594473	-1.55378605081434
Si	1.4613270607932478	6.8946661325710075	6.735708952285895	14	1.7140394458717216	-0.5747919344932603	0.5518975271700017
Si	2.7404269881048715	8.279390847436632	5.43472031899962	14	0.961568192903244	-0.707595437821145	-0.27446292182048726
Si	4.172439107860056	9.492515907445295	6.816877539029316	14	-0.6654200545915638	0.2610528078021909	0.05387365532572278
Si	2.77825691201652	5.493772700225964	8.206298494449264	14	-0.33834229061009835	0.02427946175922234	-1.2010733383488699
Si	4.106902989674627	6.622657929668484	9.616600657870272	14	1.4129434724819483	1.206369043976779	0.019289717664410965
Si	0.20946207870324	7.829201752914168	8.263205879989895	14	-1.037564923956181	2.5972478048222807	0.436699410411299
Si	1.4962807404899638	9.40499358348132	9.502070888227104	14	-1.427916818534895	-0.6133281752527038	0.9438213955414541
Si	0.04582490783112	5.3315980264122835	10.882001862734509	14	0.2481975383119826	0.013360491685617478	0.533895676160453
Si	1.378208477971908	6.8592737037567595	12.174101763898932	14	-0.5106572549453585	-0.63090605099496	0.5816711838878486
Si	2.819596828868424	8.148204861294564	10.90787181070158	14	-0.6347097442055872	-1.526442602845097	-1.2001096880748783
Si	3.83239229180544	9.613025665060752	12.137035588451136	14	2.6220188619187152	1.5845827503390737	2.0163194132614226
Si	2.761828195060044	5.424677839198331	13.528601539556796	14	-1.7680362571422794	0.2563242880079066	0.01062586406710798
Si	4.194701563082975	6.615751693559184	14.738655355742736	14	0.7245853017766835	1.5604087038979775	1.9892173920817418
Si	-0.04314366322397999	8.252562151397916	13.511100324757464	14	1.063330227479917	-1.1295225626155334	0.5011547067926233
Si	1.428567126684192	9.328862486605859	14.994364841427311	14	-0.3307760418739666	2.1423822497714755	-1.2961170747239958
Si	0.122378503856796	10.71062970741997	0.120607257419352	14	-0.33041968667659405	0.3134588762111732	-1.076215836012903
Si	1.3461310424901238	12.116349380057867	1.528943174795124	14	0.7441380435153456	0.7086994704456165	-0.3349255487501535
Si	2.662735894367076	13.682326230366156	0.17679964439808002	14	-0.847162747914743	-0.14602541243674613	-0.07366499563809463
Si	4.073964305925095	14.903316274555763	1.6081292655259918	14	-0.36833731949600984	0.2816519894061534	-0.7850996079232846
Si	2.7993006196907397	10.913185550013912	2.994755226567588	14	-0.394436866711365	0.7421575210872355	-0.8980649768219706
Si	4.278762644008644	12.284390292072622	4.152581647799904	14	0.22762252509802955	0.5813515954965541	0.2549466897773713
Si	0.13194973460592	13.761024822077543	2.688378342791724	14	0.1444621804020961	-0.9376121761932963	0.616822307382785
Si	1.407182169696336	15.073030933204068	4.104286744936752	14	0.5518707876746721	-0.866885953936131	0.2899875128540734
Si	0.06321237285923999	10.800898275860352	5.547511342139976	14	-1.3931107373739222	0.69212715399407	-0.46114753667952313
Si	1.5267169292728318	12.041697030208164	6.79078009151982	14	0.915398340448281	1.2539046675778047	-1.3863626143506613
Si	3.00396895803576	13.780768532366483	5.581522523732364	14	-1.2016168700135492	-1.0894061205263268	-0.5714106738867335
Si	4.186625329326924	15.142922042630182	7.041143337957432	14	1.3356354777157358	-1.1295798982641725	-0.9628899981483322
Si	2.699168321089548	10.807690762198439	8.265952124466299	14	1.6961764345494608	-0.07939033296500037	-0.8098873772043003
Si	4.179199094263512	12.068736975821988	9.553583284618824	14	-1.0860207461512876	-0.09460664847070073	0.2551474931028748
Si	-0.10247229389469599	13.221005908232232	7.734724442938944	14	-0.26092425253618357	2.5668383137587614	1.0856996150968015
Si	1.409375915283996	14.717774147741675	9.3181375081773	14	-0.8676709123903722	-0.3603072433601234	0.11182636924186048
Si	0.027072445548455996	10.696687235462845	10.94419048765284	14	-0.05920175688066563	0.6859667856469952	-0.9472677051125804
Si	1.3499172848747518	12.381402596949144	12.1570067982825	14	-0.04291483311965562	-1.3667299112365427	0.389678264984835
Si	2.822408073214092	13.493599109958131	10.782145813577689	14	-0.48976599577702734	0.3384906433870709	0.05822267997475325
Si	3.962505780104652	14.921711237557476	12.256911597341267	14	-0.8655692909016832	-1.2572658735628341	1.3164468044904067
Si	2.692067085372456	11.083745206962647	13.700672443465919	14	-0.9183728521931603	-1.358523714386226	-0.8673135287508716
Si	4.037483129300676	12.389007581653033	15.011931056095907	14	0.161771375638397	-0.3587602092889903	0.5577671035053678
Si	0.07214985488304	13.629936335739371	13.611736372345453	14	-1.3176768212755656	0.6343544174503427	0.13463515875795812
Si	0.991053006668208	15.193816940263895	15.333322909671754	14	1.0320848700768175	-1.256793304404991	-0.12625489807746745
Si	5.1835283242288925	0.007994983919472001	0.013194973460591999	14	1.4531506745889562	-0.8614560366105103	0.18691575722731715
Si	6.526263123549972	1.4155021529621281	1.33379731729728	14	0.07637776886138287	1.1298516640965122	-0.012442607086324612
Si	8.049811309196183	2.79044438750352	0.08089233729904799	14	0.7485171500966218	-1.0679595026088435	0.13156757300048944
Si	9.397242349071586	4.085859282000408	1.529983172703348	14	0.0575377375174658	0.7193106792123996	-0.6396807192315616
Si	8.132686142507783	0.29040316590423604	2.5106037003546837	14	-0.4762435244562405	-0.3848728691414782	1.1332102989762216
Si	9.674808040796183	1.306513622173716	3.96434202641136	14	-0.2746061323868195	1.0531612488281992	0.5786280236309213
Si	5.3982066424405675	2.9328266011263118	2.86348799058894	14	0.4194156691176676	-1.823103676668147	0.7762413787637785
Si	6.844859982747468	4.17591660086568	4.2987013539053756	14	0.4875453321120155	-0.7991735813352432	-0.48191975367153145
Si	5.420111598382536	0.248169500849952	5.458071522032712	14	0.7848000741534874	-0.9414927454529958	0.8520702166393097
Si	6.896664878550875	1.539716903125632	6.810101302658544	14	0.09979051101718328	0.3130138178802556	0.006119744883016458
Si	8.503412896855007	2.78995688848404	5.52653263433502	14	-1.760265605533196	0.13727157015323796	-0.16179168737042615
Si	9.445114752784523	4.402863644400936	7.04013583998384	14	0.11413187938243725	-0.016941270064987708	-0.2230030201693195
Si	8.18413353903024	-0.0036724926134159997	8.090468727420815	14	-0.8352351332240442	0.8908864507681172	0.7644695730554806
Si	9.5830119754281	1.32624108249534	9.500104642181867	14	-0.35851004074133985	-0.8508312009855304	-0.4509369061216191
Si	5.624422437446604	3.07514381487984	8.195216016739753	14	-0.04781176031240965	-1.2474987586726558	-0.059499747987270805
Si	7.117420684538736	4.286481378483744	9.630266880383028	14	0.060542588305122866	0.2370615669493572	-1.7067146239251514
Si	5.317395554978099	-0.226719543992832	10.94443423716258	14	2.0251493602624073	1.717414021604416	-1.7347041906613476
Si	6.716582740754964	1.311648611845572	12.10931314421004	14	-0.34878869152585995	0.6310042672181897	-0.1292453506753317
Si	8.218047220818733	2.653570912800852	10.703105972552663	14	-1.6159546061239245	-1.4470959786705393	0.5030007604124895
Si	9.393391106817695	4.02438565564398	11.933423497981655	14	1.5025596055262418	1.2616200404225053	1.8246928768665305
Si	8.384544385938469	0.36031052529766794	13.365419367769524	14	0.35455645209054815	-1.100522037267455	-0.08218563866906536
Si	9.542289557334204	1.2480787397053799	15.120497087734105	14	0.28880634706999736	1.8399233334514917	0.016552261830049306
Si	5.542912601389547	2.823074321874048	13.561312723763903	14	-0.13071550869739235	0.1292890594657742	0.06088480242323457
Si	7.037860844559599	4.290202620999108	14.942494945754639	14	-0.8928242928479129	-0.5838270556987927	-1.0133219718925048
Si	5.551752583609451	5.4000591387145915	0.11561851745334	14	0.29411876488248734	1.1924781332636152	-0.7032330434244497
Si	6.889531142899152	6.954839761542156	1.4822895186308878	14	0.2964499860762656	-1.7289510853969845	-0.683672331259295
Si	8.263449629499636	8.095603717092672	-0.058792381749288	14	-1.4896254031027047	-0.9251464291590904	0.047175411745672996
Si	9.440223512622406	9.44716224866634	1.176221384234028	14	1.5368995452926715	1.5411002171647294	1.7177408090906068
Si	8.204137248796235	5.562948811090175	2.965602785202684	14	-0.4661053990683647	-0.12745149049346438	-0.8900341293544882
Si	9.811454015956427	6.860752450782516	4.001294452087944	14	-1.5751143978870963	-1.0015316542259016	1.6106609573802717
Si	5.504920177804739	8.211498483990384	2.742133234673052	14	-1.307888623321762	0.40014754873794595	-0.5717729426263424
Si	6.9422947867742035	9.451208490528023	3.941218322920692	14	-0.5351606599779658	1.2558957315377275	0.6058706842716143
Si	5.164255862992116	5.30415183161556	5.4136766113254	14	2.063390952352162	1.3091512931444864	-0.30649735144634027
Si	6.809288804292744	6.643831637081232	6.605319214542312	14	-0.4017691448633633	0.27533221252922935	0.3321927209053681
Si	8.145361117014263	8.058310042102452	5.211234518502671	14	1.0889466640056162	-0.46649492152436706	1.4469625383044238
Si	9.589869461635452	9.499503393391176	6.593456738401632	14	-1.1131029698200035	-0.7728912285316255	0.49659485150734073
Si	9.087582971897891	5.954004274549716	9.04822555105854	14	-4.492324689827865	-7.029915652127814	1.7014718830668378
Si	8.111886184343303	7.6914832799110675	10.38156786927097	14	-0.7515405128425838	1.764033560379873	0.8358881939753617
Si	5.406867875019996	7.996901415615287	8.058326292069768	14	0.9557184140788433	-0.03694369812414371	0.7354420511015407
Si	6.839757493010243	9.571458248666424	9.32434499569201	14	0.09420401337756554	-1.5308906150489534	0.06004585075727026
Si	5.5669788029845435	5.250136940257176	10.898885578775833	14	-0.6516967799452735	1.6903865624790193	0.806218152801917
Si	6.790406342271552	6.937403546612088	12.146671819069523	14	-0.1624519472166402	-0.8035169495525692	0.15565780140814886
Si	9.19935024709734	9.25240639038408	11.958627197288772	14	-0.026650020864398865	0.5769457494199484	-0.2839603277625823
Si	8.324257007196108	5.506480174667076	13.36974185907558	14	-0.5262322396432195	0.8540813352207295	1.0852753827189767
Si	9.7503866387829	6.932057307365124	14.977481125385987	14	0.15734316094550593	-1.5480509432872176	-1.8983504162991967
Si	5.3843941702219675	8.302644550665827	13.555852734745727	14	-0.4551758874629472	-0.7951456877406992	-0.8991700378885704
Si	6.765462642441492	9.341569961046972	15.053124723241966	14	-0.9388797311161294	1.7836276969141895	-0.4573297023896352
Si	5.224006992813048	10.818838239777216	0.109573529611788	14	0.1154572841749736	-0.781807307560835	-1.3365649322889694
Si	6.709757754482244	11.916653531711544	1.3174661001447	14	1.4565126519055818	2.073878233842514	0.38399123712719935
Si	8.023356362405735	13.528536539687531	-0.10531603817499599	14	-0.26452765664237105	-0.9023947181811002	0.3092669460972038
Si	9.187179021577656	14.917762495499687	1.329117326710272	14	1.5146602556049866	-0.9190811917088612	0.7500703548205232
Si	8.300694554587906	10.84327819062048	2.684868349851468	14	-0.8377771850540745	-0.2451366374283463	-0.8087949145537693
Si	9.377677388423123	12.40046380861081	3.957988289190804	14	0.731055488314836	-0.23928608727234935	0.732546986511054
Si	5.655931124072327	13.557672731085118	2.6299434603233878	14	-0.212332675980173	0.156372054466086	1.1536233325550054
Si	6.8067700593587634	15.242274342800208	3.9834357380076595	14	0.43224111378616226	-1.2903328590852587	0.6002006257090916
Si	5.56975754739558	10.737848402674272	5.417804103023664	14	0.2362987200008693	0.7658404864121834	0.09203014382938034
Si	6.715315243304316	12.277646555636483	6.845526231407424	14	1.700640901827366	-0.6331642527976461	-0.7544908561974538
Si	8.23369593934404	13.749796094662187	5.484380219117316	14	-1.5530257749711722	0.29937693237272217	-0.3299771994509965
Si	9.632720625447742	15.10494586901269	6.814911292984079	14	-0.7697087143663462	-1.250137226952192	-0.6207956935445418
Si	8.357829439670963	10.884764357178227	8.126413655123807	14	-0.8240752505819414	0.433624882669466	-0.7078525483531597
Si	9.64102435874622	12.353208903655883	9.475940940782975	14	-0.8088933878875312	-0.046084234647802154	-0.4559222793373862
Si	5.433079072300703	13.44611670546078	8.345836963791756	14	-0.5751066377844464	0.7281570812874331	-2.109016244700318
Si	6.880869910319724	14.746406590152468	9.369292405288068	14	0.41880451738306845	1.4851941030834297	1.91639623320972
Si	5.550225086681747	10.821698234024831	10.84420443875749	14	-0.4508055226397595	-1.009906258474688	0.454739313779586
Si	6.709514004972504	12.301501507656372	12.159216793837475	14	1.2286188751962765	-0.2808392630144545	0.46701351346744097
Si	8.30966453654634	13.651987541387182	10.882781861165675	14	-0.6240687106170903	-0.4049819980714203	0.307083563459334
Si	9.72178669630674	14.984517361233815	12.219666672252997	14	-0.3481508002959312	-0.35938987298189456	0.7648223287054047
Si	7.977661454313143	10.765392097274892	13.575563945100035	14	0.6421752056131691	0.28214152785910956	-0.3128011874702793
Si	9.548952043933763	12.204586702583747	14.908516264096884	14	-0.8231684217355252	-0.167345531972478	-0.6767609430482051
Si	5.398060392734724	13.58651642307102	13.59586015427772	14	-0.26014135096619845	0.06136122823905802	-0.8842170035676531
Si	6.736781450128752	14.928974972947726	14.825852680360391	14	0.09159691258293538	1.2991759187233762	0.483804630981732
Si	10.823729479939333	-0.013113723624011999	0.389251717087464	14	-0.027218749361215624	-0.09157300130345801	-0.8740613946636002
Si	12.2366316381309	1.393418447379684	1.5978430362149638	14	0.22306421247593908	0.36333549120619374	-0.9932547519792811
Si	13.524539047727796	2.7049370594867277	-0.021758706236123998	14	1.719804121110026	-0.8261750722969063	2.0495524921875288
Si	14.821075189969488	4.385914928490348	1.3756897330379279	14	-0.4926479477303814	-1.182284214890292	-0.1002317126901207
Si	13.720367403852912	-0.08653107595769999	2.678352112957752	14	-31.518786483470784	26.18812539318171	9.415461987326017
Si	14.800340231674273	1.403477177148288	3.9324270906027357	14	2.101744130412811	-0.12161353875353614	0.048006650095676874
Si	10.911576803249629	2.953464059617632	2.846311775135928	14	0.6983764825852219	-0.8831577081757521	0.03996500398584972
Si	12.452171204610323	4.18363533534078	4.127101699048415	14	-1.7567557896606618	-1.435904471432999	1.2924694476063017
Si	10.950137975690495	0.09938480010465599	5.5097139181629595	14	-0.7565387415849517	-0.6843158789209282	-2.2002030659846894
Si	12.13539434175222	1.5475006374699958	6.556975561777212	14	0.37915550224106487	0.4201085820014475	2.9982643871584367
Si	13.684666225659658	2.640278439536364	5.393737901428668	14	-0.39052441574569563	1.335550374129639	-0.2764562997751981
Si	14.831572668855625	3.987270730294236	6.8473787276814475	14	0.32267371767858394	1.3930127782612243	-0.18781050187872866
Si	13.29296076350748	0.06046612838283599	8.124723658522944	14	1.6177926893172982	-0.2140918262402183	-1.7661094708153604
Si	14.85710136750906	1.3929471983275201	9.25939387632996	14	-5.899342535878468	7.028215380179599	-6.347896541589374
Si	10.740058398229246	2.716620785986932	8.125162407640476	14	-0.5517203780134435	-0.5075829843140576	-1.9919651323373844
Si	12.038983285666392	3.7737786596966276	9.471667199378867	14	2.3306496370655942	2.219149798199393	1.732293008092113
Si	10.996645382148888	0.16259717296389598	10.923488029292256	14	0.0366464783491346	-0.48474231309199	0.36589811187878535
Si	12.358717642576009	1.402680928749804	12.401780055963407	14	-0.5250143070530654	0.2943920733780191	0.7053668037296406
Si	13.638857567795855	2.54580112956114	10.811818253896705	14	-0.3480446136462091	0.5665168320203637	0.7566145891918962
Si	14.993081094009346	3.8348622868374718	12.261884087339963	14	-0.3676413212858457	1.2147793865895156	-0.4150774431109818
Si	13.53671027324748	0.059523630278507995	14.099576641139087	14	0.7534390170109813	0.19850218624203242	-2.1885857837061327
Si	15.210814406076432	1.3439372969024639	15.167703242787082	14	-1.0409359001414273	0.48395118398498044	-0.1660586937597439
Si	10.769357089299994	2.93336285004774	13.503836589367213	14	0.40554635568919284	-1.4772200770435222	0.7245696180342306
Si	12.192041727815795	3.99537946398492	15.11157585567762	14	-0.8311038811956303	2.1781699789436804	-2.304566544924288
Si	10.925015526219958	5.496681444375528	0.21701831350518	14	-1.3055602303438356	-1.6315730425016959	-1.0036155350878817
Si	12.23853288430687	6.716176491572064	1.4738720355612	14	0.10607146420377302	1.1757101556972054	1.6266810004090504
Si	13.346244406336643	8.000151409078487	0.00194999607792	14	1.1803893102693428	0.33673663533766585	-1.5389651713068784
Si	14.928877473143832	9.277398840116089	1.114715257942968	14	-0.7332291007524893	0.6754293676029004	2.0051600448403843
Si	13.593097659834	5.672359841028804	3.0435863783521677	14	-0.1538523712523409	-0.6899651115303574	-3.3793147940204507
Si	15.00473232057492	6.791153840768088	4.167775367240364	14	2.090720773463208	1.7933881269305356	2.037090087590239
Si	10.813297000922459	8.22768345143712	2.640749688588528	14	2.000496316900168	1.3810692227175405	-0.48289857346691184
Si	12.374350111134	9.643526853712883	4.242086467776432	14	-1.4914568014222462	-0.08644004664231439	-1.2120049068385434
Si	10.891768093091423	5.380640427771971	5.470193997650448	14	0.6847352261986442	0.5056916792405566	0.19093079529526036
Si	12.226930407643247	6.7697363838456	6.891383639173176	14	0.530216938668385	-1.2172152517698236	-1.8523628552114322
Si	13.51160407374426	8.119068669896976	5.525622636165323	14	1.617295437548382	0.48174980360986974	0.5378268961949593
Si	15.043358492885051	9.454994732912652	7.073497022883587	14	-0.9775944065847911	-0.3793761030775336	-1.0211214198811738
Si	13.407165533804326	5.3458329977811	8.169719818020948	14	0.9875875216326107	-0.8859969797807917	1.0013527052956195
Si	14.957834914900943	6.6899165443894075	9.508197125905236	14	-1.019854379179405	-1.060172395925711	0.21681256988999897
Si	10.776182075572716	7.913734082892	7.992205175060964	14	-1.0803036363614065	2.1940843495438007	-0.3111217414751586
Si	11.903231058708528	9.420366052562256	9.259036377049007	14	0.8198725218256272	-0.31020488531799384	2.320347989379357
Si	10.85354816996419	5.448305291675796	10.774297079364061	14	-0.5441770121146611	-1.3217057433122377	-1.0254439621454068
Si	12.296935266840574	6.698334027459096	12.094054424900316	14	0.5585119527166148	-0.8808485984877272	0.32174503443694646
Si	13.507249082503572	8.090241227878392	10.745193387901104	14	-0.8418598431919376	-0.13301510529573282	-1.8627516633680223
Si	14.77536403190958	9.2722313505096	12.114220634339473	14	0.5717647150893179	2.071308156964494	0.45228056576192843
Si	13.80572848216386	5.452156533929688	13.572850200558264	14	-1.6250987421950314	-1.3776208562621581	-0.2303592096007952
Si	15.016204797500016	6.81994878285204	14.906615017920911	14	0.0033956587963195678	0.020987418507304737	0.7907910066599645
Si	10.81812324121531	8.056750045240115	13.117818615775631	14	-0.2940010082588245	0.7039475535929188	2.0632860512551
Si	12.067924477456188	9.364677414570325	14.704822923790823	14	-0.16822999220260895	-0.20643610303894536	0.7642607993034845
Si	10.8720406327698	10.834470708335209	-0.055607388155352	14	0.5842859979984392	-0.043802121565638716	0.07430237264695932
Si	12.349585160944414	12.26807532488736	1.349446035822588	14	-1.8307768833855969	-1.0685441719586453	0.9994099781157156
Si	13.692141210625019	13.200888448695023	-0.137929722578208	14	-0.7084762985038277	0.5091302754957225	-1.33834259450732
Si	15.214649398363008	15.032617264489176	1.163871409073868	14	6.138657162419871	10.331978244367498	1.7517192514490236
Si	13.594170157676857	10.805789516022468	2.6283509635264197	14	1.1751103168260146	-0.5801334057958679	-0.2601647480246118
Si	14.939342452095335	12.318645223174752	3.8598222366348476	14	-0.14340931277349547	-0.9381621356212761	1.367059012717522
Si	10.912730550929064	13.632715080150406	2.778403161722364	14	-0.0017298396593956277	1.2309148722471688	-0.9019188065863406
Si	12.3885688325355	15.06675844582009	4.220831510527104	14	-1.4959906885437955	-0.8345980133257114	-1.1148184112896065
Si	10.757624612897843	11.044729035436932	5.317704304357103	14	0.21300424868979564	-0.79276330155105	-0.13205222635333735
Si	11.962169690163659	12.241165379012063	6.875929920255659	14	0.8195853293613667	-0.8152797563922467	-1.201228375999675
Si	13.225539649113395	13.27584954792373	5.270546899206072	14	2.0806631236718527	0.3313812800663294	0.0904337445361004
Si	14.68171547026747	14.794002744421032	6.45936200811	14	0.34872055723487605	0.19837208831283296	1.0456829318940166
Si	13.267415814886728	10.805708266185887	8.090403727551552	14	1.8917863844168588	-0.24531121547958434	-0.05987924313252465
Si	14.949937430785367	12.042087029423747	9.300620043410653	14	-0.9463323369971106	-0.26571679285293953	1.6338597835734359
Si	10.919458037397888	13.7454411034215	8.077712503077755	14	-0.8465443970852474	0.2581857682596938	1.4202366698330804
Si	12.16895052425976	14.971631137152226	9.534944572107372	14	0.30624332624070966	-0.6795796458106834	0.7490902494724827
Si	10.644654840117012	10.783722060407339	10.770705836587224	14	-0.18857386304828064	-1.3011782955467073	-0.041312520284139335
Si	11.982709648851085	11.968409677613003	12.161898038444615	14	1.7081212756458046	0.9764165832376313	0.7790539108734884
Si	13.414478019096528	13.359926878816715	10.788694550406035	14	0.8271556918660107	0.5955479535217517	0.07122784490512626
Si	14.646014292074218	15.006292317437255	12.226670408166191	14	0.250479651394146	-1.1459370132004227	0.882790554336035
Si	13.503137840772624	10.673986031122391	13.517795311291655	14	-0.5016601860985644	-0.16292683036927152	-1.2571388609600191
Si	14.982323615646155	11.854546156629793	14.71925289476743	14	1.6639262891872475	1.35699159272595	0.684297109852091
Si	11.054495265793848	13.541211514194012	13.708862426993184	14	-0.9340766492675607	0.23888345217921414	-0.8575811237825152
Si	12.22387541378784	14.893728793839323	15.290699245401887	14	0.17151766457548231	-0.7047790490534547	-0.1502024301398587
H	2.6172571108397866	1.0199096986279608	1.9244803792404168	1	-0.4360077830801792	7.802665726977364	-7.843362467537326
H	0.42246990027483117	0.22423492399021558	1.694736716330077	1	-0.218549351533759	-0.10996000388996499	-0.17252836607683253
H	14.39878078934167	15.579313289904631	2.4839830038976127	1	29.20281297268313	-25.438628394847584	-8.570106983561871
H	14.326863308991248	15.978602611803188	0.1518624445549464	1	0.1427786206384631	-0.39221851704114125	1.0345737000267208
H	13.929639357938553	2.382727832554885	8.46331772749951	1	-0.696484920401189	0.7352615595080663	-0.7756752213722818
H	9.352736938586528	1.4514194557206828	12.479898523841616	1	-0.18789354858056947	-0.2844334111414895	0.2490470315097595
H	9.756381251725772	7.02227225091336	8.850786823172408	1	3.923130565837631	6.307230654293251	-1.7502717191537802
H	14.781410644747863	14.024558667024772	0.7395035126165279	1	-4.407656134751132	-10.224365145413763	-4.131276453914475
H	16.106889603776082	0.5363902961436492	16.17642646391471	1	-0.06632834660705207	0.7363375670845483	-0.4930050742593499
H	-0.759230972938152	0.637071843640122	9.940335756733086	1	5.431624539553307	-6.424863864900666	5.453315669586736
H	-1.1073897726769153	3.77822952574448	3.721668264507679	1	0.24879660585157706	-0.09528619160681587	-0.10890045138753197
