230
config_type=divacancy dft_energy=-23121.067169224407 dft_virial="-40.09444182855325 24.25916227808424 -35.2426093729364 24.259162278084236 -53.60505374168998 7.828541015615497 -35.24260937293641 7.828541015615497 -47.987781942073475" pbc="T T T" Lattice="16.3999889955 0.0 0.0 0.0 16.3999889955 0.0 0.0 0.0 16.3999889955" Properties=species:S:1:pos:R:3:Z:I:1:dft_force:R:3
Si	1.2390355685990204	1.266013550496618	1.2982067288947843	14	1.9344716178314252	-0.6469479484189601	-0.5490736821968831
Si	2.755657350935874	2.664965411790759	-0.0390811737762765	14	-0.35497348537347617	-0.35429908444800134	0.35206762214064485
Si	3.999317716431625	4.125548431729989	1.4332934382507179	14	-0.612378151836909	0.16791451757982676	-0.04762664072935899
Si	2.7947713246901413	-0.21187145783286448	2.6162410444851285	14	0.4702186533595375	1.9109352055097255	-0.9741072164390742
Si	4.050748081921514	1.3024051260776324	4.023114100464096	14	-0.08892270593944938	0.3131631990993562	0.9286888980691905
Si	-0.1785138802160175	2.597348257162312	2.465115145891596	14	0.3437781214779554	1.4953813365829203	0.9380878306775239
Si	1.1936567990484719	3.854259813766428	4.237855556371173	14	-0.39154128789981424	1.5938181606490456	-1.5767066834118642
Si	0.012496791614570998	0.011250392450913	5.259345270944886	14	0.17715378454777891	-0.4073777540087343	0.8218854401807713
Si	1.4605666199502345	1.2979443290708566	6.781379049650254	14	-1.6454341283931464	-0.8605934307756006	0.8509193898980115
Si	2.6309354346250964	2.713935778931322	5.562367867614739	14	1.9210046823855536	-0.22831132421329725	-1.2847641020723501
Si	4.104818845639677	4.044811285905142	6.87326818799204	14	-1.6517261373326129	0.758052094176391	-0.765520126689293
Si	2.762315746468047	-0.1004499325974375	8.178034912485025	14	-0.2746531836141783	1.3355156642078172	0.2617500915650151
Si	3.9516265484327113	1.5138009842296274	9.582333170191697	14	0.6263135426721117	0.06736115961415556	-0.7803659459183601
Si	0.0570883616933355	2.7431113593543164	8.185119707731081	14	-0.6012290678371509	-1.9774700118739854	-1.0949442813859258
Si	1.142456033404521	3.903722180576856	9.698609092169795	14	1.4098676591874553	1.6737252857833957	0.41954242460995095
Si	0.032193178398166496	-0.088789540421637	10.885246695928192	14	-1.5480992800672366	0.699139843754774	0.8071278098641852
Si	1.156592823918642	1.6652056826360835	11.934189992080372	14	-12.797711440958885	14.235946105143533	-13.737723486858007
Si	2.8404780940206	3.0027887851090633	11.066450174339472	14	-1.0718490707371635	-1.7936501225626587	-1.588336821217022
Si	4.183013993170221	4.107442843878957	12.416628468360996	14	0.7315877071161067	0.19475222913259646	1.817649848063049
Si	2.5671066774546105	-0.079638346562148	13.508162535934488	14	9.790327343229883	-12.524594492773495	10.515395755696224
Si	4.130960428098504	1.020636915145947	15.050729100862224	14	-1.6106236763531296	1.5515209070272895	-0.8046520925514147
Si	0.151503098340429	2.798215322379196	13.680182020508287	14	-1.3561999493978765	-0.15823739137585344	0.33196157853708685
Si	1.3285303085474638	4.210008375056813	15.133565445278494	14	1.7970475811327022	-0.8192472290117674	-1.0350146445891262
Si	-0.056907961814385	5.641579814463004	-0.20267106400638898	14	0.8129827308992265	-0.6657879797628771	2.1097209846685705
Si	1.254697558089723	6.773507054932415	1.4350154370952453	14	-0.8892401720316264	1.2357472646963872	-0.6282238739249817
Si	2.716953376906494	8.086949373604018	0.13756310769425398	14	0.11232362101077711	0.4526088959113113	-0.6051829135984746
Si	3.9023445815012336	9.39671809474063	1.6970216612873534	14	1.5529810377386015	0.23922258097094165	-0.5854856757408202
Si	2.5195467093676602	5.616651831189844	2.865274877381796	14	1.1200092158204533	-2.37258950704785	0.5981622534112783
Si	4.181669194072589	6.68040431740496	4.183587992785063	14	-0.243153286784384	0.9925196729682507	0.7960679432190364
Si	-0.1686082868627355	8.22375808180448	2.8042833183075313	14	0.018005450556996996	-0.4012914334948798	-0.8874144301437894
Si	1.102374460299519	9.498644026347662	4.335419090905402	14	1.3660292850368025	-0.883432816445008	-1.0951455989324932
Si	-0.03545677620827099	5.475890725641468	5.5880666503706875	14	-0.4244018136650308	-0.9277447881956321	-1.7230159458759544
Si	1.2852343375993438	6.728341485238807	6.907150565256743	14	0.36472594496332983	0.9290845911779612	0.8353495474107907
Si	2.611042247973555	8.248308865330742	5.686696184189625	14	0.6994866858624619	-0.9705945723506879	-0.877025364876667
Si	3.974652132982393	9.530722404822862	7.095110839134169	14	1.4187806528902804	-0.703811542121483	-1.410450785874065
Si	2.5711738747254946	5.230743690136734	8.27925564456525	14	-0.09452488732152002	0.16921626820341776	-0.02865959678262661
Si	3.94091735561865	6.516519227372929	9.712565482804965	14	0.6060645456127534	0.7712045834416085	-0.3191788142169066
Si	-0.2527074304316595	8.147432533019423	8.185677307356928	14	1.0760109189188873	-0.7027848997671479	-0.684314593368268
Si	1.279887941186811	9.287116968283703	9.51924241252601	14	0.6640900218094513	0.6414637807710841	-0.2437634100768552
Si	-0.161015091957819	5.550166275802087	10.712456411871603	14	-0.19193995413341852	0.24922212378206157	0.6219660606862732
Si	1.320395914005696	6.88704417874826	12.070326300732017	14	-0.0982869286259607	-1.3151103439449938	1.326886263421804
Si	2.7815201335817776	8.135066941316815	10.953126250380565	14	-0.2543095698790386	0.2356759982923294	-1.6218378093174872
Si	4.030100495776179	9.501218824619958	12.252316978615081	14	0.8149470553638197	-0.18941512870903307	0.20935070802986525
Si	2.8086621153693296	5.55124867507579	13.681969619308799	14	-1.4715183938855618	-0.3468935297943788	-0.18175580596031196
Si	4.158135209864048	6.787053445842697	15.10391426517463	14	0.14724180236370818	0.2725245655196276	-0.16298596579163493
Si	0.236192641513191	8.310071223887796	13.585996883707132	14	-0.9985070059272795	-0.13379980663944202	-0.9379801013646096
Si	1.508962987475955	9.570836777905853	14.964153558954978	14	0.47732750245921496	0.4260519490595018	1.2352785521965242
Si	0.0440011704749265	10.838687127169969	0.067797554507397	14	0.011457616638175884	-1.380850678765328	-0.49708567551295685
Si	1.347980695496127	12.052745512528842	1.464486217320159	14	-0.13155934546346496	2.0023927641843087	-0.43755147471439615
Si	2.5284027034252303	13.60164247320884	-0.22082585182440748	14	0.892303386910051	-1.04258115043579	0.8431772775579816
Si	4.060276475527899	14.723713320291955	1.2664563501994965	14	-0.6475974096228294	-0.4433215492738724	0.23496328789758436
Si	2.5513954879969214	10.861729111708646	3.0101031802010567	14	0.3455023047056467	-0.7204414513322007	-0.2430069908916676
Si	4.028985296524485	12.329101727092011	4.040645688700285	14	1.1276209731207516	-0.9923060141161465	-0.11913962121448968
Si	-0.064976756400171	13.756720769150288	2.578832669586393	14	0.6127720451719557	-1.4348631737783388	0.8621808312002601
Si	1.5075853884003327	15.025227117974222	3.9542341466829956	14	-2.031932707428554	-0.906403585596275	1.101599587507129
Si	-0.3187993860835245	10.78514116309966	5.417227965004564	14	-0.5079303406428095	1.8857576566621757	-0.11602318445593819
Si	1.1565108239736643	12.230422993306089	6.5557972010171515	14	0.5597545679178423	-0.7188221692015715	1.162096153027021
Si	2.6725422067066797	13.528219722475985	5.360812002860044	14	-0.7224664538823494	0.7716784381521117	0.13825270394340644
Si	3.885747792637788	14.860964828195293	6.817721425264282	14	1.651592439855965	0.876192326752939	-0.5040461718356617
Si	2.529895102423821	10.884508696423394	8.18210210975591	14	-0.38158365410541273	0.7386860146839714	0.07142633423584169
Si	4.0770372642813	12.292365751742091	9.44183446446725	14	-0.6126121224210425	-1.306867637399131	0.5209745863740488
Si	0.0017219988445275	13.674442024359863	7.990205838519564	14	1.3872391041543	-0.8899677948372283	1.6382903122611152
Si	1.3313675066436854	15.150047434218973	9.528623206231437	14	0.5082324455179269	-2.3416827642154137	-0.8455771472638076
Si	0.0498067665793335	10.788371960931773	10.714342410606086	14	-1.1607234398965942	0.04163056601224165	1.5278945060193847
Si	1.359493487770968	12.19583541651458	12.088809088329945	14	-0.12526527963974246	-1.5135258839377375	0.35795802442910407
Si	2.613781046135803	13.483644552386215	10.778958367248357	14	0.6043830427333766	1.8629234132034083	-0.5812245828937388
Si	3.9000649830308594	14.852108834137724	12.209923007061713	14	1.1575892625113335	0.17154414696027984	-0.36209698977347843
Si	2.849170088188215	10.969149039629169	13.544718111405459	14	-1.8757023208656083	-1.027579779334854	-0.5436247386918932
Si	4.106524444495209	12.179238627651133	14.842268840740422	14	1.5347516439082198	1.5580309456979045	1.717938269979194
Si	0.14825590051931997	13.534353318360303	13.45177937376796	14	-0.5582862096695057	-0.6377125381089882	2.7516550206027093
Si	1.2401671678397101	15.093910271887374	14.851912034269777	14	-0.6120714189722154	-1.0249346261814858	0.4022594546479155
Si	5.3178768316698255	-0.243572636561166	0.070224752878731	14	2.021149748826385	0.08701700267615561	-1.0249852769562924
Si	6.636993546533873	1.3805838736191811	1.188048002812011	14	-0.12599290244534436	0.2548165918481718	1.8761113837220438
Si	8.151893330026198	2.8173213095589538	0.19684906791298648	14	0.36618479012198185	-1.0795191921282294	-1.0429768435445606
Si	9.526671607540973	4.203858379183501	1.4228138452825934	14	0.42902980324129736	-0.09060163771350607	0.17845450672924182
Si	8.032862209896859	0.21101865840509848	2.7788961353424977	14	-0.8716044464196667	-1.7479824069767205	-1.243924665167118
Si	9.478111240125296	1.4321126390430419	4.000170515859391	14	0.41663656137711963	0.03691310197083396	0.5114069892567137
Si	5.3621240019796845	2.8981568553177737	2.8662916766995172	14	0.3063749668331012	-1.2494543413791606	-0.9001285459519217
Si	6.86816779141444	4.059964875736984	4.242168753476989	14	-0.4849356602120652	-0.8120651034104657	0.22583920644797487
Si	5.445829545812717	0.1052387293841235	5.6263934246531715	14	-1.7268674616455364	-0.9796178664717478	-0.6853947147132622
Si	6.6711711236004945	1.511455785803271	7.031232881996697	14	0.9420470757600198	-0.610362662376445	-1.0389486928394849
Si	8.178100512441008	2.6048430521332557	5.510789902223892	14	-0.8693454732853847	0.011953839964964465	0.14878138022941284
Si	9.472584443833814	3.797351851952043	6.942525341520037	14	0.20691304307583286	2.4062550458888046	-0.37003167790198743
Si	8.054969395062793	-0.029027980522035	8.150597730895553	14	0.7106126299143387	0.42672506443231656	-0.9481395669266427
Si	9.418448080159669	1.229638374904599	9.4810140381775	14	-0.1528576106039756	1.0523109842988263	0.30320145153644246
Si	5.3970559785400996	2.9766800026282274	8.256476059850502	14	0.7768728422304069	-1.0153148356261514	2.151195741698411
Si	6.909774563496024	4.448382215106406	9.588745565888939	14	-1.1251398564868087	-1.2288962974603206	0.8134807539997392
Si	5.23764808550384	0.1358411088497265	10.945041055805785	14	-11.259551539838277	10.580052369624115	13.913703304716607
Si	6.786299046348904	1.298190328905789	12.344632516670751	14	0.3444221833606525	-0.05777093677000323	-1.4970746665467698
Si	8.060414191409299	2.7077857830580094	10.837571927918273	14	0.5613468534426099	0.4229367978536104	0.05121487531415765
Si	9.610016351616103	4.131616427658323	12.092417085908956	14	-1.0119903964472001	-0.9670965835626265	0.4522666817931996
Si	8.319468417582216	0.096858335007423	13.586488883376997	14	0.20427586034895698	-1.3363181061782352	-0.9618546140359084
Si	9.407853687268574	1.486462202574129	14.935240378355912	14	1.5116358644168963	1.1117346275686206	0.9186032232298456
Si	5.4361043523383845	2.494635126083496	13.728840787857937	14	-0.6653799453485696	0.17091679726216372	-0.050612979558710976
Si	6.835499013335403	3.8155722397260434	15.033017112747084	14	0.4735646898231782	0.9499074589447764	-0.8988067407068334
Si	5.458654337207197	5.158058938908678	-0.1325939110286175	14	-0.2817949428619536	1.3720824382920271	0.9843990939250951
Si	6.886486579122414	6.5437596090944545	1.2881863356185341	14	-0.32727033976994463	0.8200833524618796	0.3791277343036073
Si	8.206669293271169	8.103316562621528	-0.038244774337506	14	-1.0364094692253065	-0.738484697137404	-1.0247201959977852
Si	9.646227527318166	9.325263342687236	1.2597651546893323	14	0.5501509753260251	0.9707802061548026	-0.40772176790057013
Si	8.149859731390757	5.385395586364299	2.9610672131045113	14	1.1703954238899272	1.4425129834373756	-1.0197451072032986
Si	9.719059878447183	6.8904717764483205	4.228163162874832	14	-2.2292616983130027	1.4657760872635432	-2.4128532734719004
Si	5.68343258637952	8.048950599101445	2.858452481959668	14	-0.9044780848220161	0.12151969340935075	-0.5770161977057204
Si	7.035496879135526	9.671237510536304	4.071674467879771	14	-0.9917547691355066	-0.5611869306916968	0.2440184637246139
Si	5.590821848521932	5.316843632363109	5.681841787446957	14	-0.45222837232392943	1.6608288786080652	-0.6854865031731915
Si	6.98901931032228	6.881861782225683	6.9652557262678005	14	-0.43738152465273433	-0.17066919981983344	-1.9450522304448987
Si	8.354777593889528	8.335196007028902	5.551232275086795	14	-1.991282246764353	-1.5892968719435654	-1.7654759504644761
Si	9.551681590759111	9.495872428207424	6.876679385703105	14	2.372197927707591	1.1976789651052104	0.9256835330604694
Si	8.376573179264547	5.726859757239604	8.327930811903894	14	1.184855834431504	-1.3519895073256019	-0.13922406753335842
Si	8.179018911824755	8.252277662667654	11.067007773965319	14	0.1788643409172734	0.3031382023455668	-0.47571387676029003
Si	5.3820171886312265	7.8082971605814775	8.251884062931762	14	-1.243245893362599	1.3420131044623633	0.5214389279948675
Si	6.537675213177125	9.270454579464275	9.644439928517658	14	1.5041835156464471	-0.06397681368124465	-0.8445641317676694
Si	5.467313531396821	5.591133448312846	11.255804447281514	14	0.16413782097506127	-1.1390749902114794	-2.1775531707773768
Si	7.009617696500628	6.717238692688854	12.412364471222165	14	-0.17446852215141626	1.0782817191376421	-0.6200377316961622
Si	9.726095473726252	9.7886122317771	12.156967442595244	14	-0.11693361284980262	-1.007025334963462	0.9261990396771591
Si	8.231679276489306	5.301591642597294	13.582028086370222	14	-0.2200539623671097	-1.6533150804204642	1.0057253841135951
Si	9.505892821483673	6.719895490906125	14.820916055068283	14	0.03456953947151898	1.6797409009009463	0.3846928917690678
Si	5.433250754253168	8.016265421033413	13.436904583749042	14	-0.3554699658107968	0.5595177691178567	1.7568565769892117
Si	6.584054382056398	9.429108073006741	14.9403899749005	14	1.6891858562945103	0.16727431235510992	0.03031436016667391
Si	5.372078795299953	10.761689178836095	0.04755996808695	14	-1.395141910576839	-0.1403419841265588	-0.3282077647696707
Si	6.9071013652897575	12.154655044146878	1.0586684896265115	14	-0.4202250530724502	-0.8583198023409936	2.010487375063731
Si	8.065498187997903	13.713736397993081	-0.006920795356101	14	1.7615555290723144	1.766156779153251	-0.358252415988261
Si	9.56289918323203	15.347208101922872	1.2254071777437598	14	-0.6363236270150442	-0.5985355779037639	0.39861208464075343
Si	8.391201969448534	10.825599935951558	2.5157419119207045	14	-1.1553552290986568	0.17331743829958596	-0.10748197258240627
Si	9.365607315616167	12.446394448387828	3.8062898459545904	14	1.7816510311440596	-0.8113999584641435	0.4901331496167446
Si	5.545459478960379	13.439069382296447	2.5994802557317276	14	-0.6146263263288464	0.15919255700228846	-0.10869630562511219
Si	6.476011254554044	15.030425914485795	4.071051268297943	14	1.8991358889745023	0.6321743772493891	-0.016547633840473037
Si	5.375571992955994	10.92877226672225	5.447075944976374	14	-0.001153654957150443	-1.0479717298500122	0.23139973592385912
Si	6.752187069238264	12.370118099569757	6.669055525020075	14	-1.8926402484936797	2.0307196599385082	-2.0645649190413415
Si	8.127063746687012	13.690448413619471	5.230333690411847	14	-0.5138904198854448	0.9847351373904383	1.3323647746379756
Si	9.535937601323429	14.955904364490243	6.89768777160634	14	0.013238621293442459	0.31216972400365095	-1.6282807421392465
Si	8.354793993878523	10.851479118586457	8.376294379451625	14	0.5805769214635935	-4.435295774053256	3.382037594554488
Si	9.658379919163831	12.516324001464639	9.680929904032645	14	0.3141980689907158	0.3566485604895527	-0.01883591757540483
Si	5.407355171629273	13.647119642693362	8.160404924314863	14	-0.3444543221771544	-0.4457407022695998	-0.8134442443041932
Si	6.787840645314481	15.002726333072394	9.317145348134465	14	0.8771696038851272	-1.1461468153945467	1.1876447123722687
Si	5.355022806744633	10.793997157157229	10.865337109287655	14	-1.0739473497889365	0.07583732252308775	-1.2993934342334608
Si	6.879270583964394	12.055467910702095	11.853485646233517	14	1.246057139919649	1.3436187597347957	2.281817147941086
Si	8.212458489386579	13.815908329435047	10.900383885771038	14	-0.3807179629441189	0.41090993849755375	0.32684507894999215
Si	9.872629375401045	15.032279113242286	12.213711404519675	14	-2.058302477813057	1.8724521866304091	-0.6552526186030384
Si	8.21955968462163	10.954405449522215	13.635754450319478	14	-0.9443240466315428	-0.5471880335550865	-0.5154621365676513
Si	9.393011697227646	12.4067720749747	15.02916311533314	14	1.3809764058154832	-0.5443194513493973	-0.6686303366943008
Si	5.6325106205484925	13.468638562455334	13.374830625401074	14	-0.6320568777362584	0.8210344043198022	0.7446707765376802
Si	7.01314369413466	15.07278708606117	14.849993235557303	14	-2.0450157768501276	-0.7434919247483922	0.15577170137383145
Si	11.003474216596752	0.1581122939056155	-0.292543003701729	14	0.5062771199219543	-0.12332358090196663	0.35098878634831066
Si	12.492363617542214	1.627108508199537	1.1211360477103711	14	-1.5152503242759607	-1.8325334625403218	1.0238894718688454
Si	13.891610678638274	2.9090136480327944	-0.2244994493593995	14	-0.8731427387327114	-1.132729759391886	0.0636546541846301
Si	15.031081914045613	4.263177139380225	1.136289637542213	14	0.8599180014079978	-0.45088676956787616	0.6557696678829201
Si	13.388606616157293	-0.18572987537403748	2.6136826462018306	14	1.3521538009555591	1.076443121723204	-0.24867524968046611
Si	14.973567152638397	1.264373551597068	3.84350142098538	14	-1.279933766507388	-0.3628984033017686	0.7244282072416224
Si	10.895283489193439	2.7045713852148916	2.6793974021067988	14	1.0062177507824037	0.6766688974777437	-0.6249122902726308
Si	12.248987780848996	4.097668450437639	4.12000523544951	14	-0.39510663964726356	-0.2856120058202454	-0.3308328633015418
Si	10.85372591707884	0.21328185688647747	5.416867165246663	14	0.3994384378906491	-1.6785350525057967	0.8489866900288562
Si	12.483228823671721	1.3445202978180764	6.804699834001855	14	0.08009687270697706	-0.9621302365262283	0.24991940754488573
Si	13.738680781255237	2.746046957384511	5.400139176471253	14	0.03303304693219848	-0.40428445719806416	-0.44103532242319676
Si	15.085939877235562	4.034216893014049	6.82144422276626	14	-0.7936554750971414	0.4192904562885764	0.5355530106498204
Si	13.982040217959462	-0.1055995291420245	8.514382286793735	14	-2.4748680766833404	-1.389252279619976	-3.236955520659704
Si	15.023341119239738	1.4401322336618414	9.564194782362677	14	2.0749419001134592	0.8210783702207768	1.0267002042048314
Si	10.900547885660995	2.4444839597352566	8.10931895859388	14	0.7635326622768186	0.906699262708092	0.9812458903604655
Si	12.252989378163896	3.995086519270786	9.554338388976381	14	-1.1324137705480397	-0.26460967490208376	0.2600886433071354
Si	10.970264238880866	0.175283082383904	10.754292783799125	14	0.5923294438819904	-1.543922005253592	0.6313217987252281
Si	12.356637308615456	1.480787806381686	12.167643835431313	14	0.24458513533717455	0.02412339566628935	-0.15125529776845933
Si	13.850348306325596	2.8779848688533085	10.880736698954431	14	-0.9564925738907398	0.10100021607031297	1.071633097890271
Si	15.106554663402905	4.274968731467989	12.394094883481179	14	-0.09687102092615514	-0.6912779179068251	-0.49024293581391487
Si	13.652088839358997	0.022156385132920498	13.548194909072505	14	-1.7569967022291597	1.6258736733385237	2.2328429909134373
Si	15.084447478236973	1.2687851486368575	15.043709905572149	14	-0.21723988759420762	0.9056937034173822	-2.148212488195443
Si	10.929871065984948	2.8181577089977243	13.530778120759283	14	-0.6863879326984355	-0.8881775342028092	0.016892933284968922
Si	12.25111977941841	4.0100925092016695	14.98565394452808	14	0.3978505232449256	0.49596261670911623	-0.24531481502703253
Si	10.835226729491916	5.434218353603902	-0.264236622695496	14	-0.24945403748193895	-0.8646951150928329	1.5262353717562933
Si	12.174991030501298	6.4609232646781845	1.3265131099010175	14	-0.5123055905661055	2.241876569455777	-1.9662257969773818
Si	13.583979685060687	7.875389515562068	-0.07133995213042499	14	0.28346513287792174	0.8765862200879857	-0.06879737904599029
Si	14.875314818566354	9.434880869133158	1.1680400162375009	14	-0.0888188332845154	0.2699879130107696	1.3768317840394044
Si	13.53869931544411	5.328290824681968	2.508132317026792	14	1.495221413832007	-1.3705960823064494	2.506580861033643
Si	14.971271154179027	6.581069584059217	3.954332546616969	14	-0.38565268538507913	0.8823028156568029	0.5418401344891784
Si	11.075814568055902	8.049688598606242	2.5823422672314296	14	-1.0439291809551436	0.3574101218853805	0.9631069994373526
Si	11.939831588294824	9.66600591404674	4.063294073503071	14	2.9115353482781376	-1.6645523533327033	-1.0543305875278024
Si	10.660435646777879	5.420770362627593	5.427363158203783	14	1.3053637978973764	-3.5300887808729784	1.3346219479985335
Si	12.086545889848567	6.39110851152434	6.832727415195165	14	0.46310929003879614	2.4164152827824337	-0.3937434396065211
Si	13.48243095320055	7.931346278014715	5.349118810706253	14	-0.34596947454231763	0.7983685682595049	0.31919706906467965
Si	14.877906016827644	9.445934461716126	6.781149449804317	14	-1.3292871615697583	-0.645195997253811	-0.016080978224866163
Si	13.500060941370712	5.3241252274771105	8.192073303065174	14	0.26623769879080156	-1.794124234383694	-1.1428827971906188
Si	14.656817765179309	6.803961834497058	9.304566556574915	14	1.7376393644948285	0.7954660474635896	2.201246677634138
Si	10.873471503829423	7.932330277354445	8.184266908303316	14	-0.4531375151651338	0.11026570831253059	-0.25689147384153127
Si	12.222862598379162	9.271471378781996	9.53516680184064	14	-0.020226628443072926	0.3153794918853238	1.1604344476586097
Si	10.81567794260928	5.6066314379135935	10.87432430325719	14	0.8923218988683559	0.30099132940324314	-1.56889258012287
Si	12.350372512819176	6.789792244004945	12.23639258930045	14	-0.7193579875502905	-0.6346644927519526	1.586724223960225
Si	13.748881574410436	8.076715780470826	11.09164055743656	14	-0.5871193560612423	0.6063249985816844	-1.875300971325133
Si	14.967728756555998	9.512403617114888	12.376596095222979	14	1.6004125315741613	0.9422265389113661	-0.6669791728577017
Si	13.686725616117492	5.471593928524647	13.829421920367338	14	-0.015778102018152714	0.6659910970831688	-1.1908115427950952
Si	15.256253762953829	6.981737715208277	14.847352837329028	14	-2.1339245988208484	0.15233413356079348	-0.1346819528747848
Si	10.981809831133695	8.206620093304181	13.605562070578763	14	-1.515219471012119	-0.9054808158968737	-1.9734847986277557
Si	12.214285404134518	9.329920939561958	14.995903937650267	14	1.8797878072193237	1.9436836310829837	0.7747861331525747
Si	10.929920265951935	10.897759887531759	-0.18187587796009497	14	-1.0328114644402913	-0.5032036206222493	-0.00610971757226788
Si	12.195523816723664	12.331906125210242	1.104670458758889	14	-0.6157547844538596	-0.3245431683568636	1.8276319073579919
Si	13.587653282595678	13.675409623710598	-0.008495194299669	14	1.9678124260704455	-0.30027244835572975	-0.9080457505642535
Si	15.158231028727725	15.064029491937573	1.0697220822094784	14	-0.5273280447306666	1.4795446133634682	-0.020057706823539193
Si	13.51263973293026	10.997931020316273	2.5869178641611743	14	-0.7481178574404027	-1.3288061077643587	-0.6651367187852836
Si	14.822293654143904	12.245937382895832	3.930814962397422	14	1.0592527115526942	1.0794346027631965	1.0420602444979281
Si	10.823156337591229	13.802689938304674	2.548197490142799	14	-0.13437419156796307	-0.444772938227096	-0.46810443345477976
Si	12.041396720143956	14.911066794576545	4.174945198584435	14	0.5176871711117074	0.7386189088351156	-0.09697875023906935
Si	10.937562660823836	11.091082957810713	5.410061169813531	14	-2.007364253431347	0.6098494697545433	0.8018639859422462
Si	12.412430071178147	12.15647544292538	6.945378939605255	14	-0.5345623637699674	-1.17113975888011	-0.603365399247662
Si	13.489253348622677	13.552770506002249	5.55041227563702	14	1.2791241254420733	0.9847369371641626	-1.090348944847225
Si	15.059207895172896	14.919660388810188	6.838664211211535	14	-1.2128212327776908	1.97959528753162	-1.7800767433565328
Si	13.560642500720089	10.689758827101832	8.326208813059369	14	1.1871947689412428	0.3485686049104553	-0.7669080093411089
Si	15.116837456503085	12.242165385426865	9.41789048053382	14	-0.01539963531502692	-0.6728641758249886	-0.43289880252705615
Si	11.012149810775371	13.464505765228468	8.110220957988632	14	-0.6996409521816707	2.0237941306481573	-0.009713893010051457
Si	12.227192195473975	14.984161545529489	9.404868889271393	14	0.1523660152667633	0.8524592248742482	0.40486912654786583
Si	11.081406964303367	11.067434173679201	10.727938001483357	14	0.7175299316676651	-0.9949269988795053	1.1989768590708212
Si	12.518669199890995	12.322525331504817	12.265846969536367	14	-1.1153979384287676	-0.1334611920687785	-1.0584261011922664
Si	13.636279249967336	13.557198503031035	10.563150912056571	14	-0.2723957531430882	0.38211098780657515	1.7460368515809643
Si	15.134910244376126	14.550513036510477	12.131350659784273	14	1.969113148251908	-2.3493500573906276	-4.346812984234084
Si	13.73108758635032	10.998472219953124	13.667832828794676	14	0.24332657928296203	-1.041318480613065	1.534011422686549
Si	15.235491376885527	12.279786960182543	15.212318192434884	14	-1.13453596087929	0.626407388016297	-1.757366941395261
Si	10.956225848300715	13.600855273737055	13.48530095127476	14	0.6155776352973013	-1.164399863393874	1.5869167997487041
Si	12.446492848321801	14.847533237207978	14.832379647376138	14	-1.3078850237743136	1.498172528518473	-0.25211461726722817
H	9.846819072719926	11.320556523832447	8.526085318940924	1	0.1763266599662873	0.14288300751446112	0.12258438812242406
H	7.862464684234714	11.892455300084624	9.445214502199224	1	0.09676560560802908	0.00026970894808353346	-0.05717624010945299
H	7.321540567198339	9.086846862666256	11.983043919299067	1	-0.4585880013333157	0.5952854436685646	0.4888334558774097
H	4.212392933456759	1.1221216870490005	12.074140938172372	1	-0.18021185721556301	0.0370545127634421	0.08029356226396839
H	16.09887863754702	13.686328736383802	11.152760036424988	1	0.30553627227766894	-0.13833600775577928	-0.35277904698272977
H	15.887192499589805	0.3878285797644835	15.938516265151224	1	-0.42888864955922124	-0.09007301845968363	-0.3393545347746406
H	2.1135469417961628	0.7424717817965728	12.84647053993415	1	7.575827646112511	-0.22300507705357564	1.7791442034569154
H	2.274535793771589	14.213683502525301	13.970950545400704	1	-0.03820302550995225	0.2608226938760377	0.09103255496516288
H	11.65306466071731	4.693465290654058	11.795441165181744	1	0.5381601114444506	-0.36096930298006147	0.40155497179019495
H	7.634273597352428	11.554595846790528	7.475752943720824	1	-0.9790874474442011	1.1373263814832464	-1.9499879813279868
H	0.4231311960761968	0.34969860534994607	0.31746934697598944	1	1.0800724939931252	0.3459841298426425	1.0029118235617571
H	7.238525462902017	4.817006407757159	7.449599881269701	1	0.3687481821261695	0.18182342603023183	0.23804321496058975
H	1.735650195367354	1.0336289864281822	12.569181165997136	1	-2.056112924522419	-1.0780960853335273	1.9452931430133962
H	14.380230310771301	14.119129365971746	1.925537467951751	1	-0.914548590139972	-1.1075403834598632	0.9586610441177525
H	14.523192294842874	-0.7263341926250009	12.666821780479644	1	-0.835927017665696	2.622456206933672	0.6642486590077044
H	5.8213253338525845	15.945546940433594	10.248553203153696	1	10.21529145762843	-10.4267149907674	-12.223483349862335
