221
config_type=vacancy dft_energy=-23103.45592883478 dft_virial="-30.72821822553773 49.717210076838036 -78.81542085649346 49.71721007683803 -21.372530719853234 -61.92045316924635 -78.81542085649347 -61.92045316924635 -87.13599414471987" pbc="T T T" Lattice="16.415527419515318 0.18054890445429753 -0.5858681355074625 0.0742992170727675 16.510656043452613 -0.2716857729751275 0.09343664530398 -0.21790385020346253 15.938126613287423" Properties=species:S:1:pos:R:3:Z:I:1:dft_force:R:3
Si	12.444180879300573	15.132445812846484	13.961126787047931	14	0.07057298438008455	0.09399241140971736	-0.696814793213764
Si	1.1337061765101353	1.367059598603259	1.2722627996018159	14	1.2208268834130358	-0.3177405379008158	1.001914748918604
Si	2.577432119575104	2.664601873145	0.02871928392843675	14	0.9284256168844073	-0.048573578818769524	-0.5386488785658107
Si	4.134903379636969	4.144279898121413	0.907965015569238	14	-0.4137083295280029	1.1276855078642873	0.4584491616460277
Si	2.7138581637469668	0.0006570790809000001	2.57088761192934	14	-0.8408506843537796	-0.8151689417529483	-0.26308809477362016
Si	4.075076329321025	1.5452282340869963	3.592632441147222	14	0.6780621794507321	-0.2913226878468263	0.7277917272214401
Si	-0.03436687862877225	2.7625608652232745	2.7216511216464405	14	0.3861761624282612	-0.2760852892775007	1.0953697993164102
Si	1.5099348739541552	4.150853974325817	4.034690606311209	14	-1.0117237728255006	0.099177816619392	-0.8969365186969577
Si	0.021729605205363003	-0.16652519417018927	5.370763998156926	14	-0.45671058022854355	0.8536835852277026	0.650887653101023
Si	1.4459238725905792	1.3131347611314983	6.5362695167872165	14	-1.4268235845527677	0.37452854110692635	0.3400649311745975
Si	2.7355729846730092	2.65433665520364	5.204902453858446	14	0.42575215817917256	-0.4018431926965836	-0.6699392864127882
Si	4.147816626274357	4.017705112069944	6.436255509883427	14	-0.865686533304282	1.0400200724263904	0.4787084431266666
Si	2.6420509190885126	0.02451397781067675	7.9265371485278635	14	0.5305486112546842	-1.7769744476772422	0.4165167478692007
Si	4.081863956226722	1.2055446324249324	9.26389348727904	14	0.4350253637373506	0.8167910520994298	-0.7802569310527858
Si	-0.04538280942006075	2.607629831435566	7.99357071366358	14	0.6766691545882758	-0.5018062248807488	-0.022744254772561923
Si	1.2468420526594972	4.050692124628825	9.309599908146442	14	1.4258969581953862	-0.6944450054401836	-0.4144007281907188
Si	0.24139278464793526	-0.015231093095262	10.704790704900732	14	-0.7151727423101533	-2.2571417359625605	-0.02158417205211111
Si	1.3907029466317433	1.357485956394546	12.00973333259111	14	1.6120665806587966	-0.6868754142671356	1.0475942915890146
Si	2.7637173244056585	2.621863807025562	10.579022483421069	14	-0.9665890473724291	0.13307758315501242	-0.6993910407445524
Si	4.204180869833959	3.8618065293356096	11.76408103280124	14	0.7237746322692408	1.4442302246807022	-0.7177762435573352
Si	2.8891011546229963	-0.203372546329359	13.369446787069908	14	-0.3269129561304441	0.2067875731362096	-1.163636502224322
Si	4.193859800170722	1.2531056589981766	14.629078884039123	14	0.29561643373147356	-0.03888436841979149	-0.6743852417323882
Si	-0.02402116850000175	2.4318053255729395	13.489610123989495	14	1.2524815607831028	1.0063139101213772	-0.9623896610530315
Si	1.5946126551097382	3.7838555952707402	14.496235563555867	14	-1.1449602502892984	1.2074118842946309	0.30845062015805674
Si	0.01736495741048475	5.4563682608165776	-0.05041603517975475	14	0.8010335189238383	-0.42371121477603907	-0.3370186855912861
Si	1.5769897941600002	6.718020875959561	1.2146386069045882	14	-1.1653827969577664	1.282050043296402	-0.8735497447048909
Si	2.8523145822788103	8.274329106048233	-0.12998831187674476	14	0.07715912776817588	0.4998799527748939	0.21569002530722237
Si	4.355737802541246	9.89317976575467	1.0016201396676174	14	-1.3358144266460183	-0.9123924612184958	-0.33053718618972483
Si	2.8051330188747854	5.35779325709996	2.4913646161634175	14	0.6217395463075681	-0.548413679461201	0.13033498511001046
Si	3.980596570976116	6.927910004073746	3.6983843911249705	14	0.46860631321327273	0.31726719741137654	-0.20089177152657806
Si	0.15314213598995852	8.180739689857944	2.4656843229841434	14	-0.34291885807996186	-0.7536840433479913	-0.14947917821330103
Si	1.434599114631268	9.640591996265902	3.6276876101132376	14	0.8806812195313856	0.6312909454613862	0.5696443245317919
Si	-0.011282047819053	5.474807542524334	5.289222126914938	14	0.4462153283116991	-1.1457477798488598	0.028286786511205135
Si	1.1731834876906073	6.825157620100306	6.659503055712309	14	1.529079785571973	0.2882029086513586	-0.19135759877840494
Si	2.533172915383382	8.122535624871823	5.071983569280887	14	0.06118844996154406	0.1854170599362028	0.3150290502301876
Si	4.021320689712596	9.406241456667512	6.345992556540194	14	0.6866648407414154	0.7569015245456246	-0.5386450219078305
Si	2.6562290429566318	5.407755907713893	7.907660909231309	14	-0.015414033504819749	-0.7258312594148272	-0.8675066187604147
Si	4.202047005518737	6.686476151983255	9.007046202648336	14	1.473100394989049	-0.1629785095862065	0.09661571016786444
Si	-0.10858231811872501	8.187354833504905	8.010848608095845	14	-0.8334847247220873	-2.1120547769676685	0.20807415423841175
Si	1.3161836080668743	9.419920200434147	9.132147488860886	14	2.239732524729306	-0.08425229312540039	-0.24921980978727343
Si	-0.05725294301651926	5.306698787769176	10.67660036963242	14	0.434772366973848	0.15471292020299449	1.1221715153946978
Si	1.426039016904843	6.752859208828879	11.944468952880719	14	0.7914556373852227	-0.6776235488831147	-0.9094012372890357
Si	2.7967421190116926	7.967896991275115	10.267111971810946	14	0.004258521741761264	1.0946465473898526	1.7478849620850867
Si	4.291475468429226	9.555066583095957	11.721793065852218	14	-0.3853973746267884	-0.36073584661699204	-1.3931518750590446
Si	2.95835236165675	5.221255509484344	13.125366548981091	14	-1.1462473456125644	0.6671048999078569	-0.05839854357865138
Si	4.22810676186723	6.775137475066794	14.314926090065429	14	-0.1403178157365494	0.49877977680840246	-0.2584246239439356
Si	0.145897839123036	8.126400892565217	13.297833380740318	14	-0.5004427677294743	-0.10750742652507574	0.04698309306772592
Si	1.4912426168002524	9.497923700825488	14.623344226360567	14	0.5543128235077488	0.44498711130026436	-0.30088360009032894
Si	0.2520193960837905	11.343290874788286	-0.02306183304188775	14	-1.4414084365918396	-2.268329129431589	-0.8570998128665833
Si	1.54505575082826	12.694799054244344	1.1489832651410603	14	1.8700469176034107	-0.6959624718001349	0.2457840417479596
Si	2.7970870855291654	14.049439858218593	-0.26553058468479673	14	-0.23892227586954834	-0.3654391695791389	-0.34870050261337887
Si	4.313420267033584	15.19103919718804	0.9186918315649305	14	0.897168432396835	0.8985064356054402	0.6647577378610937
Si	2.9879192775995476	11.195037407160223	2.385070575943927	14	-1.4367747905838688	-0.7901888537939857	-0.3274919690485414
Si	4.2573319966879595	12.40839142446165	3.7948107462470455	14	0.2585655205154797	0.8750638686279261	-0.3469886606912243
Si	0.028288897130447254	13.743142444657057	2.346025294259147	14	-1.3809779484786755	1.3761332147239203	0.6120742471880676
Si	1.357702792491243	15.011590900194248	3.7730877118324915	14	0.7429525068522252	0.4907363309248513	-1.2996351181335544
Si	0.024587899207278	10.865369333388777	5.05188680559156	14	0.47137976452211644	0.3488727666698288	0.2069438963396746
Si	1.4782521633708592	12.267704222450153	6.390946621859968	14	-0.45539725963101196	0.14483601911564561	-0.792538072725005
Si	2.8162885789707657	13.778687137538343	5.047461377981699	14	-0.19250379753012697	-0.7846920877300412	0.20970989144308994
Si	4.13132558404147	15.292219519460424	6.152124659116054	14	0.2766748437274107	-0.16654566110737995	0.7731120864786263
Si	2.638689959589709	10.75861205241725	7.656531855302138	14	0.7200596421921588	-0.023440510093258024	0.7573818070194284
Si	4.094054415875119	12.158259488037746	8.952112748787393	14	-0.008523471246822897	0.560009621565601	-0.41752179293884656
Si	0.07567579774725301	13.40540708246986	7.857358220193009	14	-0.5478122979268184	0.27105774993448317	0.8231306264873189
Si	1.434213080671239	14.91779614679118	9.100095171294585	14	0.47457667687718863	0.47322478969985476	-0.718086061748413
Si	0.2421977065220378	10.663330657593644	10.585246665014893	14	-1.2952773517264358	1.7393139253898413	1.3293123584018958
Si	1.61004087192927	12.248837839339812	11.825936814779464	14	-0.6530157569745095	-0.5443600748134556	0.01096807818521969
Si	2.8512024759343872	13.584592547831292	10.401055899754708	14	0.7813869318409908	0.280639231020547	-0.1796467282661945
Si	4.393721901510372	14.955661971525744	11.64235220497141	14	-0.9461685575882172	0.14138508155494287	0.12448880583305774
Si	2.908401209926732	10.835450880137698	13.137867478495215	14	0.23534663970081846	-0.15870970342316465	0.2987033027788434
Si	4.256995243658999	12.424741194692146	14.327604430931395	14	-0.21727691151081777	-0.3240654569883801	-0.575776924941409
Si	0.24444820237412027	13.638254553670691	13.170682007795358	14	-0.6415905362633675	-0.7696040703798163	-0.405948990782328
Si	1.3307855479421746	15.175108314871618	14.465878510018287	14	4.132812432232732	-4.9307593392197315	0.9951856520747123
Si	5.6978251106749	0.11976580407564301	-0.2707806465411878	14	-0.360509846459351	-0.9779129665339577	0.23245774576310002
Si	7.039687369223347	1.5368981140388867	0.9773049282789128	14	-0.7378128673172493	0.7967150904281176	-0.43211487251494307
Si	8.314690188592516	3.0236003143901202	-0.386815884135021	14	-0.2682200209926357	-0.3201977432552813	-0.35496705761017583
Si	9.570849622619175	4.49126693376768	0.9165152571094493	14	0.22870033244823565	-1.0388209089050735	0.7944136940560531
Si	8.250393357828749	0.022365329216133753	2.1161773890626243	14	-0.19875029790542673	-1.4422867261692023	0.4327100833965573
Si	9.386627646102648	1.325078816124558	3.5324899928724456	14	1.9047311283722084	1.0728289189746718	0.8139764631054637
Si	5.4827023476813475	2.8948013156498043	2.198670382274215	14	0.7937608904152675	-0.9810620563300747	0.7166256739265691
Si	6.770915741972011	4.1890696936709615	3.6623189630720714	14	-0.2950050248863424	0.9151489432322267	-1.0239966869606956
Si	5.474334445586086	-0.04042186235926575	4.895546337175322	14	-0.9678483747582378	0.31212961476065665	-0.22322927743749257
Si	6.795833823417442	1.2240496220407786	6.2588375872496185	14	0.4495749916335366	0.6610905703429666	0.2853266131297089
Si	8.019344640611882	2.770930410016238	4.891628503155455	14	0.8225179320895276	-1.1930874852244902	0.37894929959438906
Si	9.519469323888199	3.9572604074179525	6.214834643899447	14	1.2641078419302803	0.2892138672632409	-0.6107794385488409
Si	8.112881490475699	-0.0789644785471575	7.7379817354727995	14	0.46291131492914467	0.3598984376142198	-0.1564831262159164
Si	9.581177263073222	1.2362827918294343	9.12315536163877	14	0.4932755545390295	-0.8620268219915831	-0.7037308094144303
Si	5.458626970157171	2.5624983547639495	7.626229010788732	14	0.021444046812163036	-0.21149012476676043	1.1928476010981204
Si	6.930024156016541	3.970510407084301	8.85875495297312	14	0.4915976512071008	-0.18270351538131854	-0.5168078530922169
Si	5.5320949821926	-0.12790208579488727	10.486443326317662	14	-0.21473151724387113	-0.05742203777805914	0.4647866791496607
Si	6.847754569692458	1.2823276084235018	11.79294815952288	14	-0.043841716587569	0.12438878983610399	-0.5224848536391038
Si	8.158625693390254	2.567595645734031	10.304256652254223	14	0.04574587718767066	0.3734304220246912	0.2748974386195923
Si	9.643573492595486	3.888311456761413	11.536066378240431	14	0.03197349442976547	1.0826641681558344	-0.3724616295400594
Si	8.340367196376386	-0.01326478394566875	12.951296444264466	14	0.46790465857140423	-0.34853466632022934	-0.3286258264947267
Si	9.734697219534697	1.449201054506568	14.052749894088626	14	0.18636014136763315	0.03516037947408901	1.2957604624160914
Si	5.52664779661194	2.6594766563139807	13.107083323555049	14	-0.01655586137749751	-0.6768087656071599	1.4051260267560381
Si	6.818641038315481	4.139872540186276	14.404982063498178	14	1.094165750694985	-0.3728879188021399	-0.9362307213047809
Si	5.487661652044441	5.7917118551492965	-0.2567503654662705	14	-0.7300918380408445	-1.1577898087263052	0.12910239721953148
Si	6.795342656804468	7.066652252005781	1.0715744213179337	14	0.10765706485470837	1.148951119967232	-0.6053852595871703
Si	8.224151262035305	8.285083847904865	-0.505642065124977	14	-0.24839834163748614	0.9928829701499877	0.1607159369044762
Si	9.575312832276188	9.786346920688842	0.8169250662128409	14	0.6314241287169698	-0.6924505990433447	0.22734715971824174
Si	8.118184118658561	5.7640110437962555	2.3201084526107483	14	0.6593113654614241	-1.3018136156713163	0.5219379795375082
Si	9.6168632279569	7.0821856014782565	3.502223287708489	14	0.7456722220598779	-0.5810335497684518	-0.022760452736078855
Si	5.431731080678232	8.43707116741014	2.399697156284761	14	0.40554815546291695	-0.4602245098695899	0.5995660769160791
Si	6.904140168322189	9.705823522022248	3.752938381816693	14	0.6082561557876476	-0.5238159148633443	-0.6894187516498261
Si	5.285905520254095	5.464884005705042	4.941499162698062	14	0.41357103250390703	-0.15608280511756936	0.16165901833590654
Si	6.79544614675971	6.756448503308295	6.123549932585416	14	0.7683691684945492	-0.6636953571428086	0.373549721311546
Si	8.242979863098496	8.186198374322522	5.0157540269328695	14	-0.5745211971030487	0.26175677643884754	-1.2365589626459577
Si	9.67037082021229	9.576091470987055	6.042387524512648	14	0.41108811609624	1.444192172321964	0.6762991725327065
Si	8.297302233414198	5.439722804999678	7.431380422836348	14	-1.212134490546679	-0.31684759302312837	0.37270614165600546
Si	9.600483889167766	6.86015365194904	8.66330185226631	14	0.30178657227876493	0.16432139789491987	0.9329469055898876
Si	5.583061321102609	8.09325782372462	7.477594437293748	14	-0.8441987777016764	0.3716884981702908	1.537862167124535
Si	6.96144567766518	9.55243333867925	8.785967017786422	14	0.08219258065342977	0.6555925187263618	-0.899321475991927
Si	5.737420696089934	5.208154995308901	10.350109273217125	14	-2.556228133434106	-0.1487410138758865	-0.727250509551549
Si	6.989862705216402	6.6006879071809506	11.519355214515441	14	0.6858636843236573	2.0654928309513827	-0.04884328776685305
Si	8.287925714929756	8.21732092498935	10.116867554567754	14	-0.5109069092719449	-1.615601079142404	-0.4945330821511139
Si	9.787197838098606	9.393416915706046	11.290519211103504	14	0.4398443864389042	0.9269343757987214	0.4614712388393297
Si	8.294416013551345	5.322468685710776	12.851862309649574	14	0.6842852827676184	-0.46989520831026294	1.2038290490310046
Si	9.778386407623737	6.7169794056163346	14.127479497959383	14	-0.27945395146795876	-0.08368793550762789	-0.4102247389297343
Si	5.6232449922950485	8.004532435430693	12.82955611755072	14	-0.08849590245630479	0.2550821870277431	0.3408694300292719
Si	6.957429281783178	9.62395311123981	13.943927742105373	14	0.44395609806688496	-0.8257130446708757	0.43128954770717554
Si	5.558320651009022	11.168734531551795	-0.4922951462941958	14	0.3302073133771498	-0.5307830960598817	-0.2936423390666639
Si	6.993474997463649	12.248862479805345	0.91839943137393	14	0.3176888586838808	0.9963048542205728	-0.34331866495724495
Si	8.464840972066678	13.50603381561659	-0.5444705107130603	14	-0.8316785232346833	1.6955071758346263	0.0678288436718905
Si	9.78560770672283	15.199596009519059	0.5395243479315855	14	-0.31523602420845953	-0.19499571280641448	0.24565857180833633
Si	8.334803379258865	11.068155436638433	2.346698800317069	14	0.2021125323325844	-0.5161308810614218	0.27298710736672227
Si	9.748448242000233	12.610768495983448	3.5090503393590398	14	0.46010803879858725	-1.0610146900285915	-0.6784699567545075
Si	5.652652566560729	13.619856339405494	2.237766587587765	14	-1.0222223671792614	0.4179534815220994	-0.3262431831945455
Si	6.943444996243924	15.172118605053523	3.3077081673896616	14	0.3709547047119206	0.3758655158734034	-0.2880514705480019
Si	5.5532627847837945	11.001650820162842	5.038010938100655	14	-1.1675471534162671	-1.1179284202848574	0.6533908812407191
Si	6.8988736794887755	12.40911421145064	6.167334397141187	14	-0.4735155817115633	1.667429420185949	0.22283512699191385
Si	8.20402657248504	13.820661349226235	4.690734787658791	14	-0.13494857649648415	-0.17511129848145326	0.8073000739206354
Si	9.540361153265415	15.071932114890998	6.123825905799393	14	-0.23909145459961414	0.7090316572529797	-0.5026415769992649
Si	8.378474497673182	11.158162129140115	7.303217148106803	14	-0.14264672293553954	-2.0840937495005263	0.8964122703221795
Si	9.785330090811149	12.248341744633732	8.721208588968324	14	-0.24188958851953124	1.7358100230595435	-1.1709901205504774
Si	5.354739482071477	13.76585602578607	7.557618455858857	14	0.3127011714733256	-0.6321396673275671	-0.44673186337051685
Si	6.856344235977523	15.058687043317757	8.79045486790897	14	0.2791135371235711	-0.25570979383639125	-0.14647381320457994
Si	5.678801028585143	10.935670224254267	10.16930575061898	14	-1.0914534916927607	-0.7203902863363298	0.07248305852242255
Si	7.0639779401465175	12.419732609397986	11.213992495946485	14	-0.33117996251976184	-0.05553844602051865	1.0044226050478764
Si	8.448571694023594	13.72790806616639	9.919063753449024	14	-0.37946866286905895	0.3456033491447285	0.08696506634868861
Si	9.710327799121819	15.051436175660026	11.353306402678903	14	-0.06062049279632335	0.235790669589608	-0.18372141597756517
Si	8.327646145370162	10.876552819345694	12.385590780354422	14	0.10579892703983734	-0.5993256785686454	1.0518960079001543
Si	9.707507287167056	12.057542406517394	13.845884972444285	14	-0.1627162568435514	1.378886611411267	-1.1445280474849815
Si	5.7844117065604985	13.5675873412176	12.9005781527075	14	0.2641975267192641	0.4631787098824401	-0.30987064162637457
Si	7.340747862510109	15.008018032691854	14.037040775962009	14	-1.2500793770824885	-0.9198671786052304	1.2329990102196808
Si	10.946324761551061	0.3048879789330045	-0.41121487310654026	14	-0.0818269694769047	-0.6376397758284279	-0.6936335646011448
Si	12.413189744449923	1.508995250868468	0.9046270538382661	14	-0.1465524890273765	1.02577357784745	-0.5333948248440881
Si	14.252764766314586	2.5060371920399147	-0.4453452032661885	14	-0.8012281515965736	-0.2852201693694548	1.4008929589569463
Si	15.104542949676064	4.329904738475663	0.8335015287262456	14	-0.43419643938213487	0.18044839890501665	-0.7562950008006017
Si	13.757954649838245	0.2645301817841265	2.2667125637991123	14	0.09184065336728543	-0.6581078310610627	0.28233281809492855
Si	15.06836253278401	1.6191430598974375	3.660948953188395	14	0.08391522121792896	-0.38670760989793584	-0.5283009509838107
Si	10.946819213559438	2.8833451418743126	2.166033264325912	14	-1.0016144438172105	-0.4455820650713467	0.06489546961213356
Si	12.331546025950397	4.165556118760954	3.4769832375134175	14	-0.1557184794937044	0.09503833705395359	0.3109836731194666
Si	10.830187676699689	-0.11441225226401026	4.977886559500602	14	-0.03501048403392438	0.6193466185861064	-0.8187690034222198
Si	12.244438694893185	1.316398801465869	6.179477218556219	14	0.5916815253413129	0.023076184469393038	0.4280152450819669
Si	13.602767355208986	2.905138812290063	4.969587650708836	14	0.1748009660693114	-0.5232929520412263	-0.16998220047828988
Si	15.162566317914939	4.242396589179103	6.105726662516003	14	-1.052427969590893	0.08471560630409107	-0.15638208177683458
Si	13.791355622218095	0.02253616977716775	7.5432218531963375	14	-0.8937722593794514	-0.20990940921593343	-0.25871258773979217
Si	15.188599791100199	1.278667677942889	8.85059895888145	14	-0.49609708551736	1.2948073536739124	-0.8774128304484133
Si	10.860641649401702	2.5209627433625585	7.610104290143446	14	0.2180389871277096	1.159331443476266	0.1839291612874331
Si	12.31463938119884	4.1595964114971915	8.75011021234171	14	-0.2885587496276671	-0.862821807756573	0.025960450417535155
Si	11.108685717046047	-0.22758919585592852	10.329992797155374	14	0.04633003231640831	0.8341154168571198	-0.2178132440806006
Si	12.562299057580859	1.2501307334594018	11.57994447656523	14	0.12639836575433172	-0.1130023928152962	-0.8545857860845426
Si	13.784944173086213	2.673549647529156	10.09033305858331	14	-0.4278686920787184	0.3875013101102656	0.03948369306991801
Si	15.161490350919967	3.9485869635500728	11.519553980937413	14	-0.19636688327364946	-0.003601347221931414	-1.3985146865358096
Si	13.962569075630507	-0.037699912266637506	12.939028777824065	14	0.3003485530732061	-1.1610779953202424	0.21355395100724334
Si	15.812194122037534	0.5620835154765847	14.663263423222945	14	-5.443751672016848	-2.8700222817790264	-1.0821463475443567
Si	11.21421590283399	2.681321250358501	12.741137913727114	14	-0.2718807607474626	0.10027027926992292	0.6473644674808241
Si	12.685496457156502	3.962633671602012	14.138155390326306	14	-4.768031512402239	4.955859754907677	-0.09580452643935772
Si	11.072479016990755	5.5928682263850416	-0.43307425143038103	14	0.360527072864996	-0.16022922666737216	-0.8125266168154324
Si	12.578758888557402	6.961729864367669	0.6179878036795569	14	-0.9108659959899239	0.6094946572203629	1.1829545020472545
Si	13.854952663760704	8.342642332694002	-0.7402291531924905	14	-0.3458751149770682	1.284864632290368	0.5401863995472592
Si	15.263263687062866	9.812498668108663	0.6065135602293404	14	-0.022406925754558497	0.09457065299621865	-1.0173943456090873
Si	13.599861422973706	5.571973111612421	2.152165610323517	14	1.2761622121132628	0.46920100987382296	-0.12205242643168542
Si	15.210603726821835	6.9892614778573785	3.353102475693638	14	-0.6137572927306365	-0.13137756831733047	-1.545330970969033
Si	11.15979497065615	8.33027281899606	2.084885640532464	14	-0.7467765117948816	0.13838897252537433	-0.6851118931280461
Si	12.59004257907416	9.744070452623735	3.2732115156424118	14	-0.5650988674363021	0.06360528896248326	0.4351120099866397
Si	10.957754652163317	5.512780142609545	4.759084153654009	14	-0.7010036380013492	0.25318342574881375	0.5795525931040465
Si	12.35355981785825	7.085735471212819	5.9352014994408355	14	-0.30163204884902406	-0.7399327436537113	0.1472142915367826
Si	13.910620403494551	8.31162655737782	4.644875595905077	14	-1.0227985518815066	0.623803886769115	0.08851775685152605
Si	15.193795643932415	9.669084587911428	5.987884457449694	14	-0.8237325222427657	1.2385204588946988	-0.5050190780888058
Si	13.551582537504578	5.533913448548991	7.231579101311681	14	0.4246041596537265	-0.003330609831719822	0.7848941766082048
Si	14.929717204016407	6.704227143353768	8.763606616663397	14	0.7265601677730892	0.4073322454445677	-1.558319166604293
Si	11.003306659446709	8.31004956758366	7.4448669709718205	14	0.2199588314702642	-0.29309726473879255	-0.3445419968685714
Si	12.426865202821155	9.720801639671365	8.601046894746437	14	0.7661963273884919	-1.20693957224732	0.5314857791438782
Si	10.867026815370346	5.474311447818254	10.139850538119935	14	0.24846853281272616	-0.4371439545211526	-0.36689801473779093
Si	12.45079438024983	6.794066280689821	11.28642068033639	14	-0.8583552835944116	0.3162109873458597	0.24660550989774688
Si	13.83964764926884	8.159121788096334	10.026018158144819	14	-1.1190458226569937	1.8571589950756362	0.11482993447685746
Si	15.149787772489137	9.632945238461929	11.35729651539767	14	-0.17034549766002682	-0.19353661053723045	0.47696857615652233
Si	13.823885964815753	5.44406116963132	12.52351825022614	14	-0.23882020298833848	-0.04369207825793638	1.5402314406770514
Si	15.194191534078657	6.742566065026581	13.903758855192255	14	0.6632269017534775	0.1174162093183944	-0.4696126438355787
Si	11.13521035684428	8.1196724027768	12.741405673452581	14	-0.45006761541287693	-0.3498279322962638	-0.12142996183367756
Si	12.307212744886966	9.526117321489206	14.125702099045549	14	1.0387499463982373	0.1508035545637093	0.041343630658513125
Si	10.86456112611927	11.245371307454866	-0.6013604175373822	14	0.6030812921097856	-1.7842509328437932	0.7935500597790154
Si	12.343058051447764	12.516809472810152	0.6247080799794615	14	0.2030121620841042	0.45436444662390846	-0.5398956075355504
Si	13.682868580566101	14.044886300187954	-0.590740376892336	14	0.6618942978660448	0.1541351928375572	-0.25778339027709063
Si	15.204489605974063	15.722134863209378	0.31923201526905154	14	-0.5457086195538733	-1.9996913038244293	0.7871382373316301
Si	13.73794659182484	11.129902800568308	1.7506557952418702	14	-0.009484293304962232	-0.8745090240998381	0.7806281986610151
Si	15.064444698764142	12.40109620396596	3.1017237317137254	14	0.7297246842011275	0.8060412607558908	0.14873690010737428
Si	11.120979666649685	13.883055936050798	1.9683838767911919	14	-0.5351529466620053	0.3298149627052952	0.8735417742783983
Si	12.476067284398946	15.219889896932655	3.324825077447107	14	0.10508827352934842	0.19687699056916683	-0.08794131503874886
Si	11.119576802811965	11.004597819840678	4.7354736595795694	14	-0.05034018528424327	0.1611540532510294	-0.5333002081683067
Si	12.48819696423236	12.500053956247202	5.966685443602159	14	-0.26008915752819944	-0.02364568429780584	-0.4058510316696304
Si	13.919668382438545	13.809898393881094	4.563169454892865	14	-0.5639981772487467	0.330193943629485	0.3392547758882189
Si	15.236244595256258	15.159244783160991	6.0380442317878975	14	0.13910194003065138	-0.5143259651266778	-0.8964847754922077
Si	13.764037559429678	11.101699323718378	7.29303735044596	14	-0.1676175549153497	-1.1003163488418433	-0.9038432789184715
Si	15.042577106951791	12.112659842520987	8.795895482698823	14	1.8697196158961558	1.3893769782280032	-0.2839662413048186
Si	11.012175584341156	13.79143939980091	7.246169542303066	14	0.9408399418122103	-0.7702090514616471	1.421984507229717
Si	12.586320226080861	15.054057921192816	8.61674451398914	14	-1.4249047686523413	0.6937148115292614	-1.1109044176607448
Si	11.062051171976872	10.937217645489788	9.962097505154867	14	0.4000673302519573	-0.896595333020974	1.279297675051183
Si	12.36953505301263	12.259484163148093	11.364552311148508	14	0.4560894011831958	0.7922318540813754	-0.2763020334559892
Si	13.746613464901912	13.676616473111336	9.913564001541891	14	1.0326777669636436	-0.7357822083353963	1.5274180802035615
Si	15.367985665581301	15.071603575350547	11.108350606714788	14	-0.9194714854964595	0.6892724557571097	0.2255928945583047
Si	13.689889470545518	10.971505674628853	12.805511951282886	14	0.9840126567954768	-0.12578412869334835	-0.24845310618080527
Si	15.232798215476937	12.48615837638387	13.995667791633142	14	-0.6042783987468465	-0.10280127534707667	-0.3232121071326229
Si	11.041305542695158	13.697560868815025	12.623647245969087	14	0.10146764301751587	-0.4161459944820353	0.9744468594518657
H	13.492979296976811	3.196055647265432	-1.8284983112583908	1	3.9524974736938305	-4.267820401262111	0.12714527184983473
H	0.13511681410316925	0.4244106637487145	0.338047474750623	1	3.963054175027826	-0.10591591233190407	4.242415823814792
H	11.691672560783763	4.83319610318872	13.272353496680719	1	-0.5299755118788231	0.5812335817623593	-0.5172765655920797
H	-0.8330859262075764	1.5056227924857488	14.459743034100384	1	-0.18308326763710442	3.457383578850895	-2.589942780386676
H	16.998032952826275	-0.0940444434538125	13.728106832588363	1	-2.401205909261098	4.270949950657795	-1.4491790882009232
H	17.783359086038637	1.6191430598974375	3.660948953188395	1	0.17951765877912304	0.05621053295120536	0.09442332866137418
