223
config_type=interstitial dft_energy=-23322.037629497518 dft_virial="-70.93932880045246 -1.3998589062901956 3.6278033627802246 -1.3998589062901956 -71.42435033699806 4.396739945108642 3.627803362780225 4.396739945108642 -75.52140217822486" pbc="T T T" Lattice="16.254729908999998 0.0 0.0 0.0 16.254729908999998 0.0 0.0 0.0 16.254729908999998" Properties=species:S:1:pos:R:3:Z:I:1:dft_force:R:3
Si	-0.16823645455814998	-3.0988504740414866	0.24139899387855895	14	0.545166373441854	1.1387584871465692	0.41018077302875977
Si	0.04427788427211599	-0.09291203615984399	-0.039889107196685994	14	0.5819676323312616	0.36298427821946155	-0.11634431551042468
Si	1.4714756797421338	1.2392443535322508	1.4001011607117149	14	-0.13047433901836247	-0.3406382876609906	-1.2441226402767693
Si	2.6740656173295894	2.761954941947553	-0.012955019737472998	14	-1.0444973952308962	0.031708670581790215	0.1359770186245434
Si	4.07928701796264	4.073419060465491	1.2348555764568208	14	-0.8303040103305321	0.9180350089540928	0.3631729973499604
Si	2.6484156535331875	-0.15976774027556098	2.7807941739120836	14	0.9505864878598277	0.22638633766010238	-0.17179302995527015
Si	4.018900696350705	1.343762266847121	4.000207756955355	14	0.5978550063255206	-0.2552487946524887	-1.1099271405285567
Si	0.12072387903414297	2.4503517695920225	2.7288278023930106	14	-0.8408781951807052	0.9163136539422538	-0.8481287121835226
Si	1.373605950960045	3.840586309248975	3.9860011230148884	14	0.9640061149678085	0.9550836081752986	-0.07766717817943714
Si	-0.18388975946051697	-0.067717204800894	5.332900552734446	14	0.8576909099796854	0.173317695410118	1.8758650718323735
Si	1.3128782800200207	1.460146132995561	6.728677955290367	14	-1.0271365207776604	-1.1768663817596758	-0.6170033131973234
Si	2.769822231223509	2.6024147678907177	5.34975670765008	14	-0.43481453310109847	1.040066352322153	0.8340128297548457
Si	4.019339574058248	4.04206368647103	6.766047579351158	14	0.1525426502022575	-0.277688116334081	-0.25011429732815293
Si	2.595165158351304	0.12012245402750998	8.093620135208914	14	1.066159985995272	-0.02602652782426296	-0.3789323302992761
Si	3.9179750783457234	1.5265141952140078	9.421599059314396	14	1.6280861094665113	-0.565774811024969	-0.26716021137967066
Si	-0.14825939149998899	2.670392048370156	8.102040085301777	14	-0.14840985551065142	-0.2364691842835951	0.47582649117331255
Si	1.3184048881890809	3.9237129980036003	9.433334974308694	14	0.44474851272655463	-0.25447566328272014	-0.5051417198125768
Si	-0.083159198214444	0.22010529769776896	10.83928783778765	14	1.120802658922251	-0.41345173321705214	-0.7556961903715391
Si	1.2197549323713597	1.5226455694956658	12.272662430623088	14	0.4221698371366102	0.029114939534824833	-0.9618196470035546
Si	2.6980901081350916	2.789783039551761	10.922837149519909	14	-0.15778564817110344	-0.13568442683911053	0.1122783695571425
Si	4.085480070057968	4.033399915429532	12.339274313790169	14	0.2299185221489218	-0.5134828996922013	-0.30566148510676017
Si	2.5959941495766623	0.13203717105080698	13.462411131582433	14	1.1484163300606414	0.14655223191684447	-0.3343851024118584
Si	3.9092462883845904	1.409788979737479	14.912186746896053	14	0.9227311328213432	-0.514969255677779	-0.2945152293228541
Si	-0.072707406882957	2.8762419479377317	13.57237437941682	14	-0.7196837465943531	-0.003491046803697062	-0.384192811784299
Si	1.219478601962907	4.158788901947559	14.920070290901917	14	1.0121840006778073	-0.1382884423073565	0.8050148755120877
Si	-0.12639677977238398	5.404860242041589	0.07252860485395798	14	-0.4988957336583412	-0.16922269596671816	0.3618614765261529
Si	1.294559199412578	6.82648266515282	1.307302907661234	14	-0.3357290191626998	-1.157141375964564	0.7569058954246689
Si	2.6690266510578	8.078990878290815	0.08133866846463599	14	1.7609767732647488	0.3347908228313778	-0.8549094882443493
Si	4.1144134892959885	9.471696136893934	1.360602167032845	14	0.3669772047816515	-0.44945723500987383	-0.558674446572848
Si	2.671692426762876	5.369294893000697	2.664946713850641	14	-0.39981536193058276	-0.08338994440102272	-0.2943972155886594
Si	3.948891574632641	6.684871458185612	4.1171442839207	14	0.33301418905515545	0.5008266337537723	-0.2966425618647447
Si	0.11396191139199899	8.22894076170134	2.7246178273465795	14	-0.22370647458491205	0.08505550642741465	-0.5015293168377688
Si	1.462633106671638	9.630813687973136	3.9589207429864945	14	-0.11888456756673099	-0.47148620828237053	1.071805361946721
Si	0.165001763306259	5.290296905642957	5.265752263480367	14	-1.0266397832298078	0.6137351812248832	0.9125320722373799
Si	1.3225823537756938	6.753970315028771	6.689341508910587	14	0.9992559689070386	0.474897293710611	-0.1520556828546214
Si	2.858849386935102	8.295633918517968	5.376056860642841	14	-1.5137272014843048	-0.9533663669319716	0.34352589604604883
Si	4.073679136144034	9.463292441530982	6.938526518415557	14	0.0329795679415394	0.36238881022731523	0.13003030912957292
Si	2.6255452485512247	5.332022797319361	8.10589245629021	14	-0.1047599433799655	0.2445357701150277	-0.30029353141935494
Si	4.078588064576553	6.538643907924248	9.451036375179596	14	0.0549733170711501	0.6196505232349478	1.0685500855008814
Si	0.031322864534642995	8.166928967098507	8.079120916130087	14	0.4820701633327601	-0.42661990622472257	0.27844530685086466
Si	1.3792463422384678	9.269080928578251	9.710851978045051	14	-0.9578848274215999	1.2818903776560207	-1.6984336079100188
Si	0.17249519379430797	5.346570780587915	10.70583650523476	14	-0.771788995680878	1.1099978459248607	1.446655548329198
Si	1.428335626563648	6.750199217689883	12.234853928854754	14	0.7466145321597122	-1.0746924561107152	-0.3434639324078333
Si	2.816960947959609	8.0966597697019	10.892083200532081	14	1.1890333663556807	-0.9607073868420585	1.006485402846231
Si	4.204269636232941	9.570346092711656	12.246833664797686	14	-0.42072744705200715	-0.5702886435250211	-1.08908113281386
Si	2.8072243647441177	5.366629117295622	13.716114956002105	14	-0.7263285111837438	0.6002870148478486	-0.7733267737728585
Si	4.193964137470634	6.778823797059632	14.89612707374596	14	-0.3502637346480289	0.6912694332592687	0.7558018628001973
Si	0.129452668995276	8.052690725298053	13.576633118652977	14	-1.33511405755681	0.41478587976767695	-0.382993648262982
Si	1.4888519860148548	9.384473256202241	14.858529883466442	14	-0.2580011628977072	0.48926591579225853	0.09701114616610322
Si	-0.04629347078083199	10.62147445700705	0.072479840664231	14	-0.4199298901816972	1.9192416754675279	-0.1718231118875159
Si	1.6118027630465308	12.00184237560924	1.3501666304312667	14	-2.2579760596389487	-0.8561960693465515	-0.05820828178496042
Si	2.753323680365874	13.424488846704737	0.04491181873856699	14	0.5865395718115489	1.8489455991304233	-1.343711062415789
Si	4.111731458861004	14.89450160075506	1.3600657609458477	14	0.20888070997734218	-0.04890705117879273	0.0314757284397848
Si	2.9452107669416185	10.84578972975125	2.7473094302995436	14	0.3384168526643826	-0.119145277646194	0.7435950260717302
Si	4.129855482709538	12.35079891729565	4.146809166004625	14	-0.3829512250251995	-0.23390373539515133	0.28325353091007355
Si	0.150063666519888	13.48082774056933	2.9110108152130825	14	-1.6767733311404311	-1.1571552599332926	-1.3558204542526224
Si	1.305596161020789	14.853247096246019	4.2090972910159135	14	0.5733207480290715	0.8447561933350843	0.18142207648975675
Si	-0.011800933913933997	10.872236175313192	5.307071786909045	14	0.6021163562831341	0.37856389090689885	0.218480188800647
Si	1.3374879411022467	12.150426861707407	6.824954720541374	14	0.9568484148670482	-1.1443655536287478	-1.5079890086307983
Si	2.6713185679749687	13.619399313043555	5.5577684862955525	14	0.3076198960291169	-0.9694869401787682	-0.37469154918422376
Si	4.045834783809918	14.878506946524604	6.861235277698262	14	-0.02127024009252103	1.085815314836208	0.09308583967383313
Si	2.5478476395862044	10.744457743498543	8.255647282941828	14	0.706310656492667	-0.2171784381770561	0.14142493368740516
Si	4.027531957932384	12.087911170477392	9.552092031023848	14	0.18304727216262234	0.7790652237368971	-0.8750569266435616
Si	0.13085057576745	13.503454324602659	8.015581176915806	14	-1.9239809939041568	1.8248283741169022	1.566516107475457
Si	1.3115453921674827	15.072881006776427	9.396729322553627	14	-0.3984045964414175	-0.9059323019910919	1.0472381935021742
Si	0.028462032070658998	10.804535225242207	10.837678619526658	14	0.17574147639542156	0.06210762011349699	0.057370358561124164
Si	1.3774908314082959	12.301937199189197	12.04033357603375	14	0.24655897289145223	-1.0986183908884173	0.9241285285628438
Si	2.7643281325142666	13.667220728435833	10.789694656835291	14	-0.6418314488318654	0.01111514540953216	-0.707786728056964
Si	4.000987983990987	14.94994648447466	12.214649299577866	14	0.6489528963476116	0.513632538021834	-0.44780555695221075
Si	2.7575499101422136	10.795302538653896	13.507566771269635	14	-0.5733757696829228	1.3943556665699377	-0.30800967559565134
Si	4.170037175044587	12.190901139180816	14.929433015329503	14	-1.7133473043195377	0.8328681736663158	-1.8358615012667217
Si	-0.014515473808736998	13.523967793747817	13.455762947049653	14	0.07788237969473352	0.26092913763629183	-0.027405668717990387
Si	1.5099343707068278	14.888698662177548	14.708645018975554	14	-1.3819945635222617	-1.3872113362168421	1.8058176213797272
Si	5.440002968104848	0.16724491603370098	-0.02421954756441	14	-1.2393864071665246	-0.9573898896474714	-0.01615219784223426
Si	6.778011060564182	1.504732857135948	1.2324823858901068	14	-0.36181211130400603	0.2751897732944931	1.644715761566697
Si	8.094205305485639	2.8176111371559687	-0.068773762244979	14	1.1368005904452763	0.054019179886843155	-0.25671406757444104
Si	9.533155270679865	4.1677290033975085	1.3670227853468997	14	-0.6905405249010067	-0.3698115912865827	-0.49582146302704
Si	8.065954584903798	0.198779092057161	2.782728486771255	14	-0.44667864149038977	0.6146957461724905	0.16750185517594302
Si	9.554806570918652	1.6226446678958337	3.9554422307859687	14	-0.29045879645925654	-1.2060836512862425	0.613054352536108
Si	5.353251474580515	2.9046227063588455	2.6495859940866358	14	-0.1926169261642135	-2.6720607989858216	-0.32210473207123513
Si	6.59355238555685	4.1265882819978295	3.9941284879693884	14	1.4062632266391397	0.7820281655078357	1.329924024357559
Si	5.2627126289873845	0.073861492706496	5.436752022123048	14	1.7724001942021665	-0.39501202297148214	0.41883639908903825
Si	6.914404499230601	1.470874254735501	6.756879911682482	14	-0.8266679531867787	-0.33985358631728135	-1.7058553605271582
Si	8.207500772951368	2.884158001403415	5.308209618002675	14	-0.9714664341647502	0.14465038531153093	0.41311697530436886
Si	9.492778521585908	4.10170229050715	6.869118821704127	14	0.2772289169239026	-0.26480122224843483	-1.0529522179656714
Si	8.101763754893325	-0.030412599659738998	7.943085081521667	14	0.40324161688021215	-0.5020466232281827	0.7340330853860996
Si	9.445054634573085	1.194202496954412	9.440779640607017	14	0.31138168022302554	-0.07337446073691789	0.6077313931918054
Si	5.587758462977658	2.8162619945735217	7.9992776828170795	14	-1.6185437091813137	-0.20516829100558037	1.1672309074618887
Si	6.817558818432779	4.0428114040468435	9.530587023354242	14	0.21730365100614726	0.18076644463311897	-0.058284900723500836
Si	5.367750693659342	-0.049625690412176994	10.621230636058415	14	-1.5170963778958269	0.3873408731382883	0.62027992981732
Si	6.667755227591435	1.139635368649899	12.071380110159941	14	0.9400745237584022	0.8499847931141375	0.24840451229025454
Si	8.092579832494739	2.594076091447401	10.825715138313635	14	0.21356294987586383	-0.20775508006818133	0.03721109307743912
Si	9.435984495283861	4.0190144794600675	12.174500116702637	14	0.013401115149675817	0.1133772599709738	-0.4624863112197242
Si	8.142140503987282	-0.058760848621035	13.46800275867113	14	-0.7592684841033529	0.47720254674065576	0.3374953685176415
Si	9.467567435497049	1.2414387420699657	14.867973881543572	14	-0.6342500305743447	1.4035118868360492	0.03398898389022954
Si	5.4430426025978305	2.4950685315716816	13.526617314722984	14	-0.1979859082937467	1.1644302024366515	0.24961524578551225
Si	6.706262682745857	4.178538398786994	14.822168052660011	14	-0.2613705964197613	-1.944853741114183	0.3012183580030123
Si	5.4999341572793305	5.42613768349247	0.05928099997812299	14	0.012851412832228157	1.0163625610441118	-0.13252479551118057
Si	6.846427218751163	6.903887688979479	1.3873086882733316	14	-0.7674808516064379	-0.9131205982451618	0.3523851536476831
Si	8.12424404635747	8.174877530024006	0.017798929250355	14	0.6141164761438611	-0.2067736891674808	-0.4733577158449064
Si	9.458497296207826	9.442047509539918	1.433537140134528	14	-0.5130031314394616	0.03847607689495197	0.5051885139294036
Si	8.091637058160018	5.453640686498498	2.74786209111645	14	-0.486810253100985	-0.709108019080988	-0.8369297487405537
Si	9.263928179197098	6.706002607067313	4.1617797722508145	14	1.7550097520377492	1.5146803102264839	1.0668804097059772
Si	5.355559646227593	8.0491634489078	2.8199030540731376	14	-0.10912079511346864	0.025374752625605422	-0.8656050292656332
Si	6.540334399834784	9.59809291666632	4.021403924756691	14	0.3606792822999488	-0.3793228811974066	1.3977215005445438
Si	5.336980489941606	5.4557050371969416	5.494716388978541	14	0.0972417743133205	-0.44890624713976607	-0.5417851128353273
Si	6.812227267022627	6.629832942713738	6.798475765519614	14	-0.49023676516114645	1.4902262704160234	0.1520379422279124
Si	7.938062369979785	8.26518880939841	5.485483702390229	14	0.25334617671557913	-0.8793007930849981	-0.7563114558746507
Si	9.514120981956426	9.423582136363295	6.732757892497526	14	0.6767496301847964	0.07029839033189274	-0.12489118381566092
Si	8.191441099801278	5.4046976947425	8.160622131893813	14	-0.06139336705555986	0.7349499415432643	1.0414616911793975
Si	9.571370140695924	6.943386682658349	9.444518228486087	14	-0.8427651293751618	-1.105331289768792	-0.08007553253281982
Si	5.416937506363976	8.017092866797343	8.234857483388216	14	-0.09895361623547509	-0.6958424011816841	-0.9288789027523494
Si	6.806960734532111	9.357311602524302	9.438260157471122	14	-0.38564214385326645	1.066473403733798	0.10657591506758608
Si	5.484849767923778	5.2906382549710465	10.976120154161611	14	-0.812419658834114	0.3515654852716199	-0.9006260548313701
Si	6.720745647094775	6.8048313649140315	12.154376761075294	14	0.9395232787777625	-0.22100861377248068	0.5446724641098536
Si	8.109663553629098	8.122797375395571	10.806989689458467	14	0.41316042698427935	0.14709473513939572	0.8791321285759962
Si	9.451036375179596	9.545346318111614	12.168713432855032	14	0.5022479407747502	-0.16464124339674627	-0.6866157326298006
Si	8.101487424484871	5.368530920694974	13.560947304290792	14	-0.27248342783450524	0.5221210422363027	-1.7104450406341545
Si	9.362220530956819	6.762325246201997	14.785302325226398	14	1.0294672277503745	0.9024024314970606	1.1626350567021242
Si	5.522316920364023	8.249486740306317	13.534988500626119	14	0.06774836807536987	-0.7433523137295084	0.16639010923551098
Si	6.841567054508372	9.520346543511572	14.928506495724687	14	-0.22611097228031454	0.826187927823507	0.18553893032837784
Si	5.38567966074897	10.954436344463007	-0.06085770877929599	14	1.5150070977126746	-2.1283085334700487	1.5279353865939753
Si	6.7382357364768595	12.266371850148305	1.331441181576099	14	0.6607259876085696	-0.70257844000994	-1.0175768940868177
Si	8.089670235841028	13.616115857601939	-0.050519700557172	14	-0.1372846827903707	0.4547681101591717	0.001960724917144925
Si	9.217781000985447	15.12486363302541	1.3895843504605918	14	1.3334605797254226	-1.303340595120952	-1.0233875921103524
Si	7.938387464577965	10.871976099634647	2.721318117175053	14	1.2391678632143122	-0.45142001681127486	-0.6295533924860303
Si	9.431368151989707	12.195371189905792	3.9366680177410736	14	0.3367502621958626	-0.551589508752648	0.892095898710715
Si	5.544813466558079	13.530502195171236	2.711418986660472	14	-0.9843656695559331	1.4368652934911383	0.4876682309463185
Si	6.811723370395448	14.949084983789483	4.1202489373333195	14	-1.121362645660979	0.7565631670854932	-0.20534878259905476
Si	5.321961119505689	10.92204066775437	5.576201350012358	14	0.439250203999418	-0.16255761964529827	-0.3448754692285946
Si	6.9185169458975775	12.180335564739968	6.772614490234394	14	-1.13849186352487	-0.8803073808178361	0.6082924083726616
Si	8.02656937433429	13.443848230026354	5.322530035052504	14	1.6933726441978394	1.0683207429063244	-0.2718779325316104
Si	9.471809920003297	14.943704668189604	6.530744109188475	14	-0.536847047957451	-0.5959901836368172	0.7526815693836656
Si	8.164783342750518	10.690345747631483	8.084501231729966	14	0.3108720871485722	0.9561015087715452	0.6185693734478256
Si	9.510057299479175	12.221021153702194	9.467892530095229	14	-1.31049932366384	-1.896466824541656	0.5254048579511958
Si	5.439482816747759	13.452138142279944	8.05371477328232	14	-0.6280320694680985	-0.5086710760855441	0.5640498564656816
Si	6.68604179873906	14.905668600202542	9.31425282299536	14	0.365944391774548	0.19475582868004468	-0.6249392868784924
Si	5.535271940101496	10.828104583610259	10.805104140789023	14	0.41914133218000776	-0.08007630386441587	0.5499766543853192
Si	6.904440349796384	12.24320886002798	12.172517039653739	14	-0.5188220570000208	0.15344896482760967	-0.15650755171645783
Si	8.063386337578175	13.623316702951625	10.5863479856737	14	0.37172449364477295	-0.4776329497712485	1.7622569266036505
Si	9.38154740481862	14.864056491635502	12.151174579283222	14	0.8613765894561177	-1.2233193129103872	-0.3440113207304928
Si	8.245666878777701	10.867993690806944	13.607078227772535	14	-0.46564337144233403	0.8030564645897308	-0.11956822447135837
Si	9.650969553060294	12.351058992974194	14.92522304028307	14	-1.239543501701586	-1.9935193655034138	1.4885697072582518
Si	5.416921251634068	13.607565869669804	13.52359393495991	14	0.057961455674226205	-0.3342159236817927	-0.34161942145115903
Si	6.67775188648547	15.021483550804168	14.842583993425714	14	0.6286864157720763	-0.5362394957703	0.389401871162919
Si	10.781616056070517	-0.06731083655316898	-0.061036510808294996	14	-0.017973825961559175	0.1459950733939684	0.8797941881959346
Si	12.158001565845002	1.3110740050001217	1.301532478543539	14	-0.36237955424816276	0.22414330537880517	-0.0688374882889846
Si	13.456819504493739	2.5956040360588464	-0.14429323740219296	14	0.7951791121098611	0.31697743384179583	0.7913648773674216
Si	14.877450389080519	3.7767702396262406	1.4481176328629008	14	-0.05018694740716244	1.017856373235118	-0.6633078915710622
Si	13.413809489154524	0.005656646008332	2.794383128116008	14	0.5132754114928654	0.3116382765339763	-0.360595978487576
Si	14.934618274170472	1.3428194925123988	4.034407708683891	14	-1.2468174157628167	-0.35080752342324023	-0.2683796866330169
Si	10.93795404833528	2.8631243809011684	2.6835258701366276	14	0.8374565682206521	0.3604232002100621	-0.46483553015074347
Si	12.29278578625043	4.29480848182607	4.120167663683775	14	-1.517912960945506	-1.3792594216826883	0.5298202171174862
Si	10.83325733299141	0.18114271010589597	5.383599055320618	14	-0.4672955637210612	0.25224805763334385	-0.2656771978310093
Si	12.24546826748533	1.4899410529187578	6.677361772967655	14	-0.237196807089197	-0.2997916516608621	0.5145756194532642
Si	13.601941733121288	2.7674327859268857	5.279113651465566	14	0.089263377394369	0.4523229889997108	0.8196565489787349
Si	14.90116604001775	4.125743036042562	6.749061386596254	14	0.1480807540296725	0.01522634281644894	-0.4971054730239221
Si	13.422798354794201	0.08541860567179499	8.172796924595653	14	-0.07261469911481414	-0.9320686160125251	-0.6043627310013474
Si	14.629435720128997	1.387454980842513	9.61854136689184	14	1.353379703972206	0.2502127706619146	-1.3027641533081746
Si	10.725114614906834	2.614882145730921	8.090109113548571	14	0.7912075257218284	0.10763572468055112	0.3211953321194988
Si	12.073005583150842	4.05165397711734	9.430539160764347	14	0.7501724277017331	-0.37803115788456415	0.27729910809914265
Si	10.872041118554284	-0.195398108236089	10.869928003666114	14	-0.4216201348191626	1.5534605488808093	0.03819685485718389
Si	12.207399690038452	1.247192916457752	12.301091953233929	14	-1.3680167494492768	0.6100574721749433	-0.6522120294514311
Si	13.459485280198813	2.7012922899271645	10.984442575875018	14	-0.6697166286920634	1.547117374945472	-0.08286106803666828
Si	14.874248207288446	4.269126008569851	12.132449130428054	14	0.0013616573775504226	-0.8370621606645412	0.037743054768177756
Si	13.56600252529249	-0.11049965392138199	13.471221195193111	14	1.1882036706688688	0.5557878666299179	0.9696376069505289
Si	14.987283599075633	1.3421855580459479	14.859862771318982	14	-0.7948610663817588	-0.5382652696520446	-0.17280630256194052
Si	10.745888159730537	2.693831368898934	13.567741781392753	14	0.8820199940715867	-0.23425777659773572	-0.09905440356402488
Si	12.212682477258877	4.106627473669577	14.837918885941832	14	-0.7746426654757104	-0.13426029160228053	0.04737518662904851
Si	10.828998593755252	5.5198787108776735	-0.045448224825563995	14	0.5897699085357829	0.10650058168170576	-0.2327757914912024
Si	12.2363818734662	6.669445719501971	1.5250512695221978	14	-0.6785041524552654	1.163795910754171	-1.3955874831288209
Si	13.37453806169438	8.237620787472746	-0.011069471068028998	14	1.114244797692681	-2.152177903930707	1.0506526213673306
Si	14.702582004719497	9.41878699104014	1.5444269075737258	14	0.2920582810789206	0.40296033795818786	-0.6819576611212883
Si	13.653696793151546	5.398894756164987	2.7932452970223776	14	1.51378145180656	0.3546312712553645	-1.0217451700318418
Si	15.134730254080171	6.812779927839533	3.994843696085385	14	-1.0256923309193333	-0.3471203012836159	1.0149319980439817
Si	10.808355086770822	8.085817864852595	2.79938958492798	14	0.09599453112251667	-0.27123644175423345	0.7960532879187115
Si	12.303237577581916	9.518022117134585	4.147166770062623	14	-0.9861998960913269	-0.2881625422978323	-0.6227998701415972
Si	10.884947374102032	5.500584346475691	5.591188210988456	14	-0.5272668524240471	0.117756109441718	-0.7302057380065271
Si	12.386981946073085	6.780709345729076	6.831180282096522	14	-0.7118105078829957	1.0052641278191605	-0.5370630208043433
Si	13.704379041007808	8.208037179038367	5.44076694041057	14	0.22377023799685172	-1.125853081102618	-0.2826817170868727
Si	15.041671925351146	9.56311273790215	6.732221486410529	14	-0.6074426580643527	0.09183422560398506	0.5547473403068538
Si	13.613027458919229	5.471699691427397	8.192156307917275	14	0.14946786534989237	-1.0890410235708656	0.3505383286962207
Si	15.064558585063018	6.773053367941937	9.477596603850902	14	-0.9505420077377891	0.2871276724064727	0.14273748295334077
Si	10.97517737982689	8.153421286544127	8.133818082273871	14	0.038444452299514154	0.3606535712467473	-0.9316886066462072
Si	12.332219761009664	9.56493326765196	9.372054642551765	14	-0.3510965156612249	-0.22206585228012557	0.4296008457329022
Si	10.751934919256684	5.4472850871040785	10.73767952112649	14	0.05526925129349915	-0.32792854273190253	0.63913564490369
Si	12.155677139468015	6.819379348182587	12.035083298273143	14	-1.156970911681838	-0.09655091831379671	0.92524078872434
Si	13.48945900215101	8.105063465064852	10.77409011612265	14	1.6074293351033775	0.3657690423917139	-0.5126624599845421
Si	14.963080306241132	9.417275301158602	12.136008916278124	14	-0.3521113309310873	-0.3671319853219244	0.7224296870762713
Si	13.443588154347813	5.573096696599739	13.482404449370502	14	0.24126763814258742	-0.12369484851019603	0.39820302178431793
Si	14.817080322198493	6.801060267575145	14.927563721389966	14	0.09165193423678655	0.45494320243147374	0.3190703135723964
Si	10.807233510407102	8.196073697825343	13.544627555462156	14	-0.04839771521487139	-1.1962543156473167	-0.5626789431089787
Si	12.152783797544213	9.487089366117758	14.886618056749196	14	-0.7060962263089665	0.45200648593480064	-0.12478988226604709
Si	10.83779240263602	10.680983023203899	0.10069805178625499	14	-0.23731584926551982	2.0315593829360687	-0.5446830056416662
Si	12.022258316374943	12.269720324509558	1.4570577343128508	14	-0.10620156213297254	-0.6106688810200745	-0.9632705217357143
Si	13.447180449657699	13.504592155696288	0.05970362295575699	14	1.3095876097173158	-0.3693554772027885	0.08869336334489217
Si	14.920655461178642	14.953571289244366	1.4753117960006576	14	-0.00395513131398379	-0.5178931166478513	-0.06554493081600296
Si	13.4309257197487	10.985174038720926	2.6936850763297526	14	-0.13609708924299432	-1.1509396128218348	0.1679983356132636
Si	14.733287189517599	12.135326217621946	4.063097306973275	14	0.8739989168043207	1.7318512921981115	1.017772555201681
Si	10.655674408735585	13.6763721413746	2.6267643532943996	14	-0.32784806713538195	0.6458822252637586	0.523182137401928
Si	12.018275907547238	14.971646548903173	4.1005319499537025	14	0.24738969702039207	-0.7815142015543382	-0.32342268065834306
Si	10.908110364222356	10.871520967197197	5.4516901189094185	14	-1.1427370155189662	-0.207818329259057	-0.7120624762043701
Si	12.074354725733286	12.27262992116327	6.825035994190919	14	0.22909448289381434	-0.8514523800308781	1.0710651407250504
Si	13.310673227881919	13.588954203923997	5.51358813040289	14	1.265748464235067	0.2957046226439547	-1.1654997822498332
Si	14.785773712393759	14.868916655878294	6.823443030659837	14	0.2879823078148899	0.254646384675978	0.08516812084043714
Si	13.676193339345602	10.935873442906928	8.126389670705459	14	-0.5783981668153	-0.04619350662390844	-1.3551679077223688
Si	15.004757433727807	12.198930975755863	9.436277080422224	14	0.21544242786489212	0.6069353789846875	0.46824327314206776
Si	10.585795324856795	13.529786987055239	8.114556227331708	14	1.2519807094667381	1.3286536412188739	-1.753586645243047
Si	12.040707434821659	14.821989250631011	9.366885638440703	14	0.8504856444305025	-0.09871501766176535	0.1435962321302702
Si	10.938214124013824	10.834915315442128	10.752698891562407	14	-0.9407226994096115	-0.23176714687410827	0.09829489905245316
Si	12.206343132594368	12.13771566291857	12.1291006560668	14	0.5776952266207716	0.22619067654523914	0.10214950014841914
Si	13.50475470299538	13.514702597699685	10.731714035249887	14	0.8109261037536402	0.5687392954590996	0.09403354909483971
Si	15.00178281815446	15.013892591936665	12.055044106601395	14	-1.3864302344205814	-1.897089803360728	0.49409907957307286
Si	13.472180224257743	10.703983466025132	13.479933730424335	14	0.5228952020481994	0.25646955545849504	-0.5951774572451184
Si	14.873646782281813	12.012342931130453	14.806986134925005	14	-0.36337560044918804	0.04700957545252345	-0.296595510637386
Si	10.88984004780464	13.448887196298145	13.486386858198209	14	0.12459242137745974	1.5199418201536348	-0.9608269432394454
Si	12.20403496094729	14.854563729368648	14.879742305997688	14	-0.40538591871721563	0.10714721466972299	-0.5418185372044892
H	2.5911843749965895	12.817178002371689	2.104852608957255	1	1.2925118708440844	1.4300117551497513	0.9262026392246073
H	0.023180870323224897	9.177535915203753	-0.0237595387079853	1	0.11641322113300465	-2.1857400843377928	-0.2552557366368531
H	11.826639143812091	13.718702709003619	-0.0518574648286827	1	-0.6491236177408694	-0.026432248243782326	-0.004374478591699941
H	6.919271165365355	9.570346092711656	12.246833664797686	1	-0.03401623760662312	-0.013552296142500524	0.04440864531066165
H	17.678081835373543	9.417275301158602	12.136008916278124	1	0.15614476875578492	-0.018372604396714145	0.1504009194705741
H	12.077222060089236	6.762325246201997	14.785302325226398	1	-0.027529081773357496	0.006405908905148939	0.01208470922576
