223
config_type=interstitial dft_energy=-23320.68473426359 dft_virial="-17.105369083350194 -2.1568517332961044 6.3574618505769065 -2.1568517332961044 -19.637852298287754 2.831372780974849 6.3574618505769065 2.831372780974849 -18.159560660860087" pbc="T T T" Lattice="16.3852778749 0.0 0.0 0.0 16.3852778749 0.0 0.0 0.0 16.3852778749" Properties=species:S:1:pos:R:3:Z:I:1:dft_force:R:3
Si	-0.9147081373662926	-1.6806051810727434	-1.1064322737804975	14	-2.118807013759442	3.892149003840379	2.250368930328227
Si	0.10258822477474891	0.16747392515935292	-0.13449036079717921	14	0.5600543587981714	0.7428710028135765	1.1502585270225274
Si	1.5295001485104156	1.5562573072801271	1.330664801498504	14	-0.37618124760671756	-0.43676805892334697	-1.1231511065216744
Si	2.9981781455492023	2.691675137621323	-0.1688994443344692	14	-0.7201025796510052	-0.15693229831534627	0.914389438720655
Si	4.092419772590774	3.976461161070107	1.4128041994853777	14	-0.5088088873307042	0.9858520255415106	-0.17016474895602038
Si	2.549532852056565	0.025839583208717303	2.670996916943199	14	1.5693636066175212	-0.40404765839807855	0.6466779823603445
Si	4.125255869452074	1.2385139987300664	4.155208157407391	14	-0.3647717106380285	-0.31639019338667407	-0.07025493865198222
Si	0.0272978729395834	2.7975895738046765	2.578223473615515	14	-0.11917587379950376	0.3425943845885592	0.7158797962731941
Si	1.3918965849170053	4.069742548011912	4.164629692185458	14	0.14599353073077628	-0.09857592086394533	-1.0930668602811537
Si	-0.029640967675694106	0.19552552088118172	5.3169243587378014	14	-0.7505336679992138	-0.6586433922992496	-0.0952136864367877
Si	1.3411022235048153	1.36984200089739	6.664973940061574	14	1.2485405705483799	1.3076045161838856	1.0909153593492535
Si	2.9318177701558574	2.8388804740494242	5.462900799325285	14	-0.7379162257511191	-0.9103826281897361	0.4709323921964107
Si	4.258206014129012	4.134071148948769	6.951126432868827	14	-0.1306550877223689	-0.6040994498165643	-0.3061142567536382
Si	2.7305574020184604	0.1318359457814454	8.144040203273047	14	0.09044634295216912	-1.240612053072639	-0.3734381353406516
Si	4.2725759028253	1.4358910560111118	9.398906709322263	14	-1.2153550570706966	-0.269787366795798	0.7217318890923831
Si	0.07692887962265552	2.6564795607460376	8.279251516296723	14	0.6739720651074403	0.9133571399346154	-0.9129246800197665
Si	1.350507373005008	4.30611656663522	9.593186949084954	14	0.4754598515546594	-0.25439030258609124	-0.4534704733040929
Si	-0.20438995621150263	0.08531814189460431	10.573944141564969	14	0.6028915445371588	-0.321130797375963	0.1725995856942006
Si	1.2226202791914134	1.3845068245954255	11.951159517506063	14	-0.01440076089814939	0.29053130162928475	1.0115661640693756
Si	2.7656218966707464	2.710632904122582	10.794489981761123	14	-0.597479110727715	0.07441884371796204	-0.8666005612455945
Si	4.041019155897213	3.8590934156521985	12.261480295178794	14	-0.019774885238322906	1.2217298556014717	1.1373562063049603
Si	2.766949104178613	0.0010322725061187	13.396177173293495	14	-0.26476522677395276	1.4282991418960007	0.05134497324335714
Si	4.2503246954711855	1.306234352187028	14.896937544411335	14	-1.3391023561294237	-1.0511750699683848	-0.15650446639007365
Si	0.0937565600001778	2.8889211126793692	13.639826255293256	14	0.41557006689032217	0.08713604485247847	-1.2211953228054129
Si	1.567137131789061	4.076919299721119	15.113796697085636	14	-0.5408836833100833	0.19465658401468694	-1.2889156658327932
Si	0.08330275271599161	5.40630604954538	-0.0956080964000415	14	-0.48782172593393136	-0.13823136376924924	0.5577905005637812
Si	1.2594052280205639	6.816931007073397	1.2732344025469795	14	0.7784962381295484	0.3309156528928506	0.9733184013268528
Si	2.881547737635664	8.108385838617265	0.1638691640268749	14	-1.007977672374045	0.8439210983271005	-0.21771965584694725
Si	4.16440029829521	9.43834607316715	1.5944350047286444	14	-0.42960675927513853	1.0766092151268858	-0.34721671773312146
Si	2.650498934321699	5.432637191090345	2.6329339164398062	14	0.03157523021567453	0.2608160090022053	0.8323459821757937
Si	3.9689075479697777	6.840411110268128	4.22001193140262	14	0.28780798687418385	-0.7687964861987577	-1.4487761959972563
Si	-0.0044567955819728	8.183053549893184	2.7735523711621983	14	0.0140536616799294	-0.12842105430969222	-0.07640245147245629
Si	1.1906362167796085	9.597479891888177	4.21686595805064	14	1.1840513355768296	-0.5134505037651674	-0.9539950021827479
Si	-0.0566275203356544	5.35888705537542	5.443107383652406	14	1.3862715972223283	1.2661706397286352	-0.05289637819353449
Si	1.3810003751301967	6.824140529338353	6.770396817908681	14	-0.23185970666563363	-0.021079206967234025	-0.11676340567760882
Si	2.7127302196905694	8.28362638548932	5.461917682652791	14	-0.5579529944200144	0.3375221080129711	0.5138389977790417
Si	4.12350264471946	9.524434323121874	6.908803260117961	14	-0.04696046734090862	0.3948587850944013	-0.27462927233470086
Si	2.9267711045703884	5.636093186462978	8.059754333884563	14	-1.620581310147531	-1.0130954575137996	0.9432974042772079
Si	4.063532527697325	6.73856022299775	9.692317880228098	14	1.1297966424426609	0.5367148931439952	0.09561992107737109
Si	-0.023447332638981903	8.195899607747105	8.126622652892028	14	0.38753447736889546	-0.1551266110490063	-0.13890396492099996
Si	1.2432165734801626	9.541622479612643	9.55194520467383	14	1.4724475913482635	-0.14252253854857638	-0.29035929468336685
Si	0.032508391303801606	5.859981623345612	10.948888455176304	14	0.20646129987108283	-1.2006455064235972	0.03669944311872965
Si	1.5560442986677534	6.862432923731994	12.425775476430415	14	-0.12809735214988557	0.612656088322017	-1.0777569565417997
Si	2.8179400889253023	8.296144737785744	10.946119343215447	14	-0.7934608424244062	-0.5565460855888295	0.01906963104900629
Si	4.234185196764408	9.527449214250854	12.312389353536108	14	-0.2035173842795133	-0.26986707106072255	0.26813028941696254
Si	2.83873300654855	5.489297481981748	13.70554760484948	14	0.5488019163645435	-1.1786774683471881	0.13187687697050324
Si	4.1283035311368055	6.708657090876057	15.266802421881453	14	0.638577457938686	-0.5241321608177226	-0.6460038385454017
Si	0.24713914618711672	8.149889747474386	13.797780334007294	14	-0.41042425670257776	0.9275954069765316	-0.8237019260894558
Si	1.61231134289016	9.553862282185195	15.023513815994937	14	0.15432982551029242	0.5255413836436957	0.3907645569825975
Si	0.1285588902064654	10.969222585019056	-0.06899840513120391	14	-0.43539046069281173	-0.8511502751557608	-0.36221114684969297
Si	1.3607481716768204	12.26692020743326	1.3217839808903082	14	0.06363331401047287	0.6997175711202113	0.6309286767217774
Si	2.7091090732802168	13.626832729938462	-0.028166292666953103	14	0.50797379232272	0.0378376714439592	-0.22366173735234146
Si	4.100940117085722	15.077568847704232	1.310347056933628	14	-1.7399525879513662	-0.695737757195154	0.9514724907531507
Si	2.5922656567543045	10.875580721964003	2.791576176824588	14	0.09550447844849644	-0.7743248768581401	-0.5882455001914672
Si	3.953194066487749	12.241899888118288	3.995812174240364	14	0.26331692314711336	0.5804149418284241	1.0308754221342196
Si	-0.069801283747074	13.630044244401942	2.6828107022910017	14	-0.16964512857081845	0.09278939123042007	-0.1831837978551222
Si	1.2187533536129371	15.058709392870224	4.049359262335537	14	0.3160284388681292	-0.3685391512636415	-0.21372287262677708
Si	-0.052613127256303904	11.076775548989898	5.401161072292663	14	-1.4204999510178633	-1.259187517679113	0.7234442452356017
Si	1.3055789410720322	12.220451559380045	6.72541923014208	14	1.6813100464778328	0.9247345380868027	0.632328386458066
Si	2.653235275726807	13.722621064395128	5.374256446022076	14	-0.09021262947856766	-0.5634363907362944	-0.1264736991402121
Si	4.06676042743868	15.023431889605563	6.698203283591871	14	-0.378080523106711	-0.3310403515008778	1.3139512896666712
Si	2.696017236258171	10.891867688171653	8.202945277233313	14	-0.5072572252699947	-0.21051773273468047	-0.31202265677933855
Si	4.0386924464389775	12.354106271005604	9.427761183659962	14	0.3657955247765115	-0.789966710294325	0.27263178061147786
Si	-0.006455799482710601	13.712642430169312	7.903815644349138	14	0.04700469035241516	-0.5593946131730215	0.6066427871992546
Si	1.3200799119913187	14.913568601454358	9.423009453076242	14	0.05170287110392175	1.6962394266298044	-0.20196160845029168
Si	-0.0166965981545231	10.97020570169155	10.779284443893214	14	-0.9707655508544778	0.7071532077060795	0.5877680459335156
Si	1.4009084877482003	12.258940577108186	12.186681501679876	14	0.21613199831175578	-0.4004352554232705	-0.5888221991147763
Si	2.7103543543987088	13.6328133563628	10.777203513603103	14	0.05162985171282955	0.7503526621846754	0.9349040309595843
Si	4.130253379203918	14.922678815952803	12.292661478974727	14	-0.07932297000561249	-0.5699515716175495	-1.0317305717637009
Si	2.872191743969096	10.976743427563635	13.490277824129045	14	-0.5997627664730705	-0.5710849148426708	1.1616025008055528
Si	4.140821883433229	12.212635781833717	15.035425913009991	14	-0.27830312472666047	0.1346834955379769	0.4824275469722607
Si	0.0652789470536016	13.824799657223002	13.260064669986699	14	1.522757951810793	0.7926239476426981	-2.9882393904046474
Si	1.5091660186676648	15.012142433149757	14.802902434687283	14	-0.3381075486943688	-0.007957056744794274	0.9520916129142423
Si	5.365244543190881	-0.023627570695605803	0.014238806473288101	14	1.0443742392860613	0.3808812281319483	-0.5927971279397253
Si	6.628270917621798	1.3404631976676944	1.4171135275664763	14	1.536264482278595	0.44461301547618287	-0.6086832163813243
Si	8.290688440253403	2.80030952993191	0.1426174586231296	14	-1.4953857074619648	-0.43283169667820026	0.3672178602396174
Si	9.563398513908385	4.222436952528106	1.5334981563118912	14	0.5468717876007083	-0.28390299211394293	-0.9222292530628505
Si	8.039764294877184	-0.0830405882699932	2.6643281088481148	14	0.6985806283476418	0.05078601494675695	0.6483507434816328
Si	9.597807597445675	1.2625348160946697	4.074723672485882	14	-0.4608742281839914	0.28739069648072385	-0.6240489131061252
Si	5.312320095654954	2.6632302952304965	2.7472376148951088	14	0.9083362854654303	-0.27648483904425175	1.3088543304800095
Si	6.694139734678896	4.055257962370501	4.161139627998105	14	0.9558685666295399	-0.2035281829218579	-0.6764621806100038
Si	5.596326117060596	-0.19088848724258503	5.50468325790628	14	0.28066597051587655	1.0559452416688557	-0.9072805896209775
Si	7.0228284088493895	1.3181628344799554	6.7317603326796664	14	-0.5974153473157753	0.20591314021682727	0.4956517700759103
Si	8.359949009830604	2.748581207680851	5.440862600583545	14	-0.4876977986575003	0.2134685903106144	0.16458622174289508
Si	9.668133210084745	4.129040868641177	6.9850931139034955	14	-0.590397772454963	-0.4869051268872986	-0.8983354571016503
Si	8.269174570403658	-0.009241296721443602	8.216528672591604	14	-0.23631080419587397	0.02259230244814117	-0.2766769006116668
Si	9.682650566281907	1.3395783926624496	9.506213894124985	14	-0.48111139815887694	0.6392030078630779	0.3636743628873893
Si	5.727899898396043	2.758019127736793	8.210761054779642	14	-0.2595816213380022	-0.3865623424473475	-1.0237840565507192
Si	6.851880804780559	4.107379531290557	9.668477300920118	14	1.669316097269874	-0.905587002546596	0.014190958704025309
Si	5.341272881659902	0.0134523131352929	10.954180899929897	14	0.9370177366432783	-0.35868333323991786	-1.1067492543528534
Si	6.937772431400784	1.2826067814914224	12.109228293165224	14	-1.6625610322622488	-0.32033504027937726	1.6692759880268793
Si	8.31733090207799	2.612009916593559	11.023392313673474	14	0.39692132578222405	1.2612143200029857	-1.7728604220544733
Si	9.518027679472787	4.071053370241905	12.393463708461113	14	0.3748015924919261	0.3789351585151282	-0.26417644365563886
Si	8.087658462105516	0.0160248017616522	13.685623106953601	14	0.2541686733074945	-0.2660698056133959	0.2265897120909261
Si	9.427662871992714	1.3836547901459308	15.120219726012596	14	0.28481264917621135	-0.6710191506472504	-0.017578389963320402
Si	5.459083029580434	2.6071926448983387	13.579610359102999	14	1.8876890709786707	0.7595595332255938	-0.3605859511768274
Si	6.7662349573284555	4.02910705888216	15.156316493171003	14	0.9632314409348479	-0.8251728554431126	-1.2807133256404568
Si	5.5767784805558405	5.277943782673414	0.198425715065039	14	-1.47221233521147	0.6442035506002339	-0.48092910679167844
Si	6.773542791260661	6.792435016650421	1.3556195797019768	14	0.31669486936711155	0.007331763930934262	1.4177920628946836
Si	8.172878292332872	7.988232595960623	0.036244234659278805	14	0.7770265943285516	1.0629335059290181	-0.314896895416732
Si	9.382783595893363	9.477621584233283	1.4946158919147536	14	0.46394284238358807	-0.4678156983273271	-0.5079329117481296
Si	8.139091849354827	5.479843176647932	2.771438670316336	14	-1.0739010698931737	-0.2261868198872589	0.6420816173795157
Si	9.408393785211832	6.644197407716201	4.319142862545766	14	0.6654959021985083	0.9345242787037985	-1.160946097617319
Si	5.497440965085574	8.086790042378146	2.8975561541194415	14	0.11687139210105503	-0.00015735164559306243	0.18489692532993687
Si	6.811245315650806	9.471477105030196	4.305231761629975	14	-0.51738378068393	1.175392624190167	-0.9117815665944288
Si	5.396753432544314	5.484889842233401	5.476926597186199	14	0.8425473567545453	0.3363550833081559	0.4433524025377142
Si	6.957729699852412	6.76557954621346	6.874967661306292	14	-1.5018250407362754	-0.47681559538997353	0.9449904771305254
Si	8.164882276729921	8.138190659071707	5.576958718612464	14	1.509856402424822	0.851517943216542	0.36111945553075814
Si	9.812651360941365	9.443736829587989	6.905182113707609	14	-2.0697603515617646	1.027756157159816	-0.7489231276266731
Si	8.281742078533707	5.395524536703697	8.327096527691431	14	-0.540234736327278	0.651047061630872	-0.22112817016986755
Si	9.441868907910251	6.920780898244512	9.679127731538804	14	-0.6745011985823269	-0.7256129725731466	0.9207639801408981
Si	5.479662938591308	8.151855980819374	8.280873658806337	14	-0.021014415113166297	-0.6564880347093693	-0.1865802279830378
Si	6.697187396363627	9.63688648517731	9.596365692992684	14	-0.12060180881005789	0.19474837247461624	0.049241294870411983
Si	5.473878935501468	5.209961264770454	11.04888780604682	14	-1.2260873648980588	1.3458692482215213	-0.19234438900027778
Si	6.6437222346578295	6.678426253196867	12.416550564986848	14	0.48788291824055097	0.6682752670495883	0.17917955842952357
Si	7.861066454373525	8.20353514723681	11.026243352023707	14	1.273144248688473	-0.2854636530432728	-0.041907988276285627
Si	9.521386661437141	9.481144418976386	12.246504151201135	14	-0.40828278308142646	0.019416987377758294	0.5355442688917318
Si	8.120789493968564	5.397015596990313	13.72547210274536	14	0.2459403649514246	0.23289174834114104	0.4467753150504274
Si	9.682535869336784	6.768594437342442	15.030805264649269	14	-1.5674249932061297	-1.3514320916921938	1.164751076380606
Si	5.420512085462919	8.104092895814041	13.880640684220662	14	-0.3314285884042201	-0.22567234171269726	-0.9057379264288886
Si	6.856796388143028	9.398136601262143	15.091529104453647	14	-0.5350146211957814	0.7809151340147436	0.9999457964644346
Si	5.465030885449023	10.93232293924478	0.19919582312515932	14	-0.17294977023880478	-1.4121911670652731	-1.1820247903634888
Si	6.87455802935942	12.256859646818071	1.397991908286468	14	-0.7220784740895391	0.9376093479774442	0.5802781590253923
Si	8.217397092318976	13.576546312140394	0.0234801031947317	14	-0.7506215998011629	1.0807576935609446	0.23202734273250727
Si	9.563365743352634	14.954253246417736	1.4009248730260753	14	-0.5623004764058528	0.8928132370950362	-0.8215175150094581
Si	8.110712548075501	10.925441122537324	2.803258879949392	14	0.32836691618898783	-0.6738026292668426	1.109952851581758
Si	9.687238444086878	12.146259021162498	4.184603345914962	14	-0.9575287293347595	0.12217198282907231	-0.7629467073743568
Si	5.302931331432636	13.634501039983915	2.7350797387119328	14	1.0001216600683325	-0.33706702237130487	-0.6417296330611875
Si	6.873509371575427	14.755860301908447	4.0695459246774135	14	-0.4083673724464593	1.043643016933011	-0.14347693284341537
Si	5.382645708294025	11.071089857567308	5.517234380758453	14	-0.3088054326922372	-1.6979386701358903	-0.7285080371636334
Si	6.927498862173222	12.209784743483485	6.713933150351775	14	0.0793944467335126	0.7595057971244027	0.41448968843479594
Si	8.340876546384221	13.585492673860088	5.417988752670184	14	-0.3410041559480476	-0.2357814136104555	0.28756553164249393
Si	9.538673129595162	15.06913042959866	6.749767753064182	14	1.0797912150711009	-0.4887321543277959	0.34980427812731846
Si	8.11643101005384	10.863898018839198	8.165914549236039	14	1.057395345069419	-0.7951523726145316	0.04383760281905677
Si	9.351815420709801	12.275473322483958	9.595906905212187	14	0.8160618866306358	0.05279250553860051	-0.5321504098691364
Si	5.4551669481683325	13.516117407337763	7.991952054038226	14	0.1720575966927134	1.3654209615180555	0.3710845455305881
Si	6.740575612176363	15.04107883387683	9.442147457634126	14	-0.559421352668351	-0.27436624826044975	0.25353823828299415
Si	5.323871716556758	11.046331702698335	10.973040354763906	14	0.853306661187769	-0.059359108526258704	-0.6453502635730199
Si	6.834643492456164	12.226350259415009	12.364642004679165	14	-0.2557334480053366	0.41697851838469924	-0.5481596542555704
Si	8.05439634801947	13.682182198599874	10.856557414351242	14	-0.25784741079956236	0.28279253172617097	0.7583642263622569
Si	9.415947398312161	15.023808750996686	12.283731502532909	14	0.6403052407138254	0.36754721883112834	-0.5197214296410085
Si	8.084823809033159	10.73814101114934	13.68370602944224	14	0.8520365351596159	0.6745279380776564	-0.17101321371166928
Si	9.411425061618687	12.242620840344783	15.043651322503191	14	0.8019668301550521	-0.7139082727137045	-1.1134238437639579
Si	5.4697498454769935	13.591587997229551	13.726963163031975	14	0.3088990209258906	0.2520202577019787	-0.1417674049160489
Si	6.751570133630421	15.017074401790103	15.09611698225862	14	0.63434001926055	-0.33419664039189156	-0.10428660289052623
Si	10.920066751394357	0.0428802721986133	0.019416554281756503	14	-0.5101543467447376	0.3298496726271172	0.4943510478944474
Si	12.173311114933957	1.611328226217666	1.3842282748715522	14	0.6753746030595812	-0.5610956564528314	-0.7058010634182136
Si	13.703007886778872	2.875337717321077	-0.11741690125153341	14	-0.34521665490457826	-0.3619764049339635	1.1832326956428947
Si	15.005375313387423	4.238330672066758	1.3564552288735965	14	0.05214201589260304	-0.32159359633358975	-0.4084887286175703
Si	13.450723763339036	0.11127242204844591	2.7528905357619493	14	0.14052324705162922	0.3759650176492932	-0.7569555177573477
Si	15.004719902272427	1.4024978597020656	3.8641236959597927	14	0.012296311193608188	0.7095283948008322	0.7622532802695128
Si	10.887279810366682	2.8787950109526808	2.8778446648359366	14	0.3833782856188761	-0.3170905624758823	0.34704213968188335
Si	12.374784491683727	4.1887652064951855	4.311425396666687	14	0.04835503486655694	-0.6288414534228812	-0.9224169437512213
Si	11.065813798091591	-0.0470585180567128	5.338536540254794	14	-0.6501502600952045	0.06518883272916245	0.7709706128574749
Si	12.366542696912653	1.3492784771643904	6.785897290778336	14	-1.221019459201515	1.1563034527407277	-0.34195906446395063
Si	13.85281848238908	2.7113866269048277	5.554773052369849	14	-0.01874412911547554	-0.24877809389327202	-0.3643047979118896
Si	15.22542959524733	4.083096549479956	6.88034203244926	14	-1.20121114959403	-0.5253146121544587	1.150146169720037
Si	13.561570168162733	-0.0716528201469377	8.02316600838991	14	0.809347187976537	-0.23993631980781477	0.6066278747883979
Si	14.762299716113281	1.5182270773324844	9.293614913698155	14	0.5076122949147072	-0.9917339431824135	0.22753716440140065
Si	11.01470811639978	2.885775139327388	8.336780226915497	14	0.1692337517195948	-1.847085661541828	-1.101494429299535
Si	12.228087098869747	4.2430496320947295	9.673671434006463	14	1.1898517491790839	0.40421143780697194	-0.5300858122970575
Si	10.96442169860171	0.08571138856360191	10.936746964271004	14	-0.2255252744883848	-0.7324107179290861	0.4695843616770571
Si	12.29216992063848	1.5206520984579694	12.27393310636372	14	0.374503601385321	0.1363631986436296	0.33416861534390196
Si	13.770974019403956	2.956608695580581	10.77551582998199	14	-0.7195454211281291	-0.3987496387753814	1.91688628588374
Si	15.071620991835642	4.37249332730644	12.263200749355658	14	0.769722341224543	-1.108644930305399	-0.7032860081940447
Si	13.6943073042273	-0.07778091407215032	13.572794083507041	14	-0.3657255907118034	1.5045149311222143	0.7224664538823494
Si	15.119056371283481	1.5897488152564228	14.949730909724263	14	-0.8539862043238841	-1.4166954864756405	-0.42910410818504957
Si	10.780906586402828	2.7888889912531045	13.88173849783828	14	0.9004180524109704	-0.5850609291419318	-1.5488819245266896
Si	12.269148605224247	4.154913222405643	14.969671792898016	14	0.5318570467521075	0.5837846324610103	0.2731169481853898
Si	11.069271091723195	5.48418527528478	0.11202614483069132	14	-0.9623755199737707	-0.49708850372880914	-0.48726019653201097
Si	12.326513463064272	6.836216479132154	1.4402823104815852	14	-0.26270525719145016	1.032094383166502	-0.41019182878163646
Si	13.779051961396283	7.9775166242304385	-0.10891294203446031	14	-0.7838485080745007	1.7372182174433886	1.3807048970936755
Si	15.117139293772116	9.529349906484343	1.304792447734037	14	-0.23393330310633306	-0.5354537659844626	-1.0217338571684331
Si	13.613314875691668	5.5443192450856635	2.74209263764239	14	0.8499778511297732	-0.6710230073052306	1.3038303906844402
Si	15.054055973953751	6.830104770484816	4.196662910430888	14	-0.6111337368619574	-0.2121449852918022	-1.0398660632177137
Si	10.777334595826101	8.047383449089011	2.814105933902576	14	0.30775230795310454	0.4461176263095335	0.4343651038911366
Si	12.320745845252308	9.462022799696378	4.10300466209796	14	-0.6675245042961051	0.005818154228963088	-1.0392867931890841
Si	10.935616380097636	5.476877441352575	5.583037656704052	14	0.3084411070683722	0.20526496456561794	0.6228127256681979
Si	12.27591572498658	6.833398211337671	7.0029530667871365	14	0.4521643518014577	0.10237807141138032	-0.1275157681264681
Si	13.638466277229641	8.175942339295478	5.4555601948373305	14	-0.2740430603217071	-0.8926206613065572	0.6223671531162164
Si	15.039473076645091	9.457254683834783	6.708165532539811	14	-0.07234344750353851	1.521749307193699	0.5148085615952696
Si	13.81061000658334	5.44245197253741	8.29278575582139	14	-0.7060563741765042	0.4744347518635164	-0.3252419947828798
Si	14.94697818304128	7.099724517916296	9.590139287400222	14	-0.3174854842530571	-0.6298902072829696	0.20381820360197062
Si	10.842023672876206	8.163079896163682	8.429668367188304	14	1.796013482572939	0.23823939029651706	-0.1713996508412875
Si	12.206442146797004	9.759710528127563	9.632380533761713	14	-0.515838289275989	-0.297898032592573	0.23844764982744907
Si	10.917690886102495	5.547776538717268	11.003156495497974	14	-0.9446729456234871	0.4275426759241237	0.7105069574856806
Si	12.230610431662482	7.01222713406433	12.340244325923438	14	1.020067266699913	-1.0900545532880679	-0.623471957072284
Si	13.581183345778989	8.46135749459836	11.01842757447738	14	0.3669370955386572	-0.46016228912084234	0.05415082047923474
Si	15.245223010920208	9.527957157864977	12.357022850467336	14	-0.8203525471888989	0.7157113888747243	0.24890742049087547
Si	13.681920034153876	5.56129439296406	13.59602840753365	14	-0.7357323288921854	0.5749109766695831	0.5007772685316255
Si	15.209421178763552	6.822075984326116	14.977307332387719	14	-0.6137305532353069	-1.0872875297425248	-0.6286241950233288
Si	10.846365771513057	8.102765688306174	13.728437838040717	14	0.29989372454207197	2.0110273071809623	-0.8149254580791304
Si	12.27132784718161	9.453207520199683	15.067246122643047	14	-0.11663125086415319	-0.11545625573284554	0.48366964795242423
Si	10.746759667311538	10.813267510205758	0.0037686139112270006	14	0.678895731795524	0.0320747959793793	0.0932154233819686
Si	12.073803322399689	12.182355788320901	1.4692350964865333	14	-0.34920675325091605	-1.8155081173313654	0.6566852384874248
Si	13.448724759438297	13.82111296970115	-0.13227834828406773	14	2.694798625995083	0.33090176892412176	-1.0204205365709016
Si	14.940505998280694	15.20830697986806	1.4927643555148897	14	0.25908308401642555	-0.7535608874031562	-1.166882522691009
Si	13.67149899742544	10.754788453470239	2.6023753732031176	14	-0.4074805982215403	0.6895485924684935	0.37991474964210464
Si	14.957268137546716	12.175113495500197	3.982179623048447	14	-0.3713054034775888	0.8676045778731123	-0.603107003162987
Si	10.80879432934591	13.618590935167386	2.7549386954963118	14	0.5542269485900558	-0.2557964400856802	0.8074396849395193
Si	12.3424891089923	14.896872003299835	3.993944252562625	14	-0.5230828927365702	0.2613551697878404	0.21353878148585442
Si	11.096290414938904	10.890835415665535	5.47753285246757	14	-0.6709361039454095	-1.1129420186269623	-0.0965144086182506
Si	12.300837732634303	12.295922149271833	6.727549316265817	14	0.6016741261680685	0.5933386027201485	1.0468437859460635
Si	13.718770524094525	13.63040472051519	5.365785257360753	14	0.39068716671246106	-0.4218582191718083	0.5389214157297464
Si	15.08866168082554	15.121907409633712	6.657338400571871	14	-0.7584907247440081	0.1721391007313621	-0.39056966719933023
Si	13.586246396642334	10.844448694001692	8.100389823014313	14	0.8805930306189045	0.7086794158241193	-0.3590607715009156
Si	14.965067529815169	12.465149299163802	9.285176495592584	14	-0.2573419314936212	-1.2619501703456122	0.9725193017933509
Si	10.842728239824828	13.517149679843882	8.179170239036834	14	-0.2268360239805963	0.8811540457997609	-0.30194495236648605
Si	12.190384574479603	15.066836490696172	9.4545019571518	14	-0.2253779501535403	-0.7340176587541787	0.45700677156142466
Si	10.79655452677336	11.113511341985426	11.047527827983203	14	0.16538095039735287	-1.0113041684372523	-0.45038591825151125
Si	12.351894258492491	12.274244426643342	12.367017869971024	14	-0.6387296673736388	0.5498429569086714	0.058839488141056766
Si	13.524310046275211	13.640645519187002	10.829341467801035	14	0.40314571465177057	0.07180891470747973	-0.4462289551698959
Si	14.919401760377824	15.127609486334176	12.017585434010908	14	0.0974968279610792	-0.4515318598927013	-0.18680982768812704
Si	13.625849613265967	10.896177016252752	13.797944186786042	14	0.3727871314735901	-0.2536284840797314	-0.9534136752698625
Si	15.019761587361584	12.332412163099235	15.018483535687343	14	-1.6116732015448139	-2.330038228220463	1.5810353963288655
Si	10.809580822683905	13.670745274643194	13.625882383821718	14	-0.2243047707929105	-1.0700611240975324	-0.10919304317296481
Si	12.068297869033723	15.098935250053103	14.879175903194943	14	0.7788268822737193	0.6077015683700917	0.08658788519822291
H	-0.5363655171237016	13.545555197567808	14.582905501299939	1	1.2766327243868498	-2.976531348108289	-0.3499801417312166
H	12.225802991133985	13.286687469477839	0.4569427982084863	1	-1.912492009781075	0.04846404973213121	0.39321687723695475
H	3.146741821513133	15.219870070464378	14.481354464614672	1	0.46363456685570237	-0.3281110912096331	0.4509729015961011
H	15.081542277588895	1.3492784771643904	6.785897290778336	1	-0.02357575023309781	0.03550825002390504	-0.1685817194104052
H	12.126424642294932	12.242620840344783	15.043651322503191	1	0.42286300713092223	0.030592296651781915	0.03568077119088698
H	15.015837313310547	12.295922149271833	6.727549316265817	1	0.06821708057523286	0.16014052353382707	-0.09362808578585237
