219
config_type=vacancy dft_energy=-23075.30223225989 dft_virial="7.2517426336672015 -66.25024418053107 -70.54039726533418 -66.25024418053106 -66.93429623921396 36.71342985474371 -70.54039726533416 36.71342985474371 -70.85276785860556" pbc="T T T" Lattice="16.631919894380054 -0.3162014489118936 -0.5986121554942893 -0.07703623423690481 16.06353630443767 -0.07470583821418081 0.1768104753812452 0.3223936440579888 16.112624432087763" Properties=species:S:1:pos:R:3:Z:I:1:dft_force:R:3
Si	12.682010161958248	14.712307772287376	14.412991707128704	14	0.23953394182521165	-1.2116711773679882	0.5610205801774831
Si	1.1152576245950248	0.7744821496235066	1.02284909945108	14	-0.5492654866537662	1.2377313866719453	0.12007216111410739
Si	2.5327126825739597	2.3842731142007914	-0.30321947849673325	14	-0.2125468490533413	0.6760911701123065	0.6865236870593393
Si	3.9930453628024285	3.6836869553544047	1.1766552369508638	14	0.6430491243114875	-0.21018066082720904	-0.2526064697149725
Si	2.5864549439951503	-0.06338177811232983	2.6026894814305983	14	1.4180633145059593	0.6560249786412108	-1.3202826365175357
Si	4.045868782363231	1.2743520964978046	3.8460855959036904	14	0.7702643302260302	-0.028015277789397497	0.4280941780152955
Si	0.10595977801608497	2.6731573280205967	2.3210544638100523	14	0.44796933636110414	-0.5521127286852981	1.1790171113599797
Si	1.3839140009375859	4.104935998696346	3.9340297480955306	14	0.0658771176233661	-1.2268782368945361	-0.23695023808899476
Si	0.10842666866299709	0.04569906600561764	5.091349356332136	14	0.07182511267099667	-0.514308995831565	0.37753159212085935
Si	1.5404883159986484	1.345354269604442	6.399510505413903	14	0.5359109085103849	0.020194232516039058	0.38689452925471063
Si	2.9713864298915253	2.8174471269047285	5.21591901115826	14	-1.3437048917630205	-0.24635431290796841	-0.23644938677262997
Si	4.2023831729551375	4.1120903144861085	6.652055522396503	14	1.269639060805515	-0.2617986854555659	-0.33355257850919445
Si	3.0146951754052633	0.11568252313660703	7.854861131859506	14	-0.15627383824285634	0.26965675464553446	-0.16343899454904504
Si	4.3041632192476085	1.5085968464276704	9.27849839757301	14	-0.23166584532449444	-0.2577880182666669	-0.054172674874456
Si	0.20887838922251514	2.643160137502376	7.826185608799887	14	-0.8450863232581914	0.9614118696997791	0.48333926091878515
Si	1.4846320524711294	4.186360035730322	9.125722628028988	14	-0.503616540136665	-0.17383757290585192	0.29703054165755505
Si	0.23594427445786673	0.2511567667804915	10.58262463239829	14	-0.44306161052600546	0.11890847884620837	0.8532632095078585
Si	1.5515859947725776	1.6429125503345434	12.058472756432337	14	-0.25914761875996123	-0.30669789766131184	-0.9341594388588697
Si	2.8006599526981772	2.8915204290555985	10.520790903072482	14	0.8216162454537518	-0.15368499229599925	-0.016081235335398174
Si	4.32616382227071	4.184905202784708	11.738286330321584	14	-0.19883205905460744	-0.4212046441994266	0.9691537249292769
Si	2.8638686156773905	0.14242714663454026	13.240361397022802	14	1.4591698892539546	0.36536846418283486	-0.5070947314137614
Si	4.298463736403461	1.5432198730509985	14.581748999682851	14	-1.6340857837310767	0.24817182725878112	-1.0440248260730531
Si	0.21967311651349022	3.014144203202748	13.388612869145566	14	0.756577565275286	0.2818101123833424	0.9258802226174606
Si	1.5468702719637368	4.535939413961975	14.742286652551133	14	-0.06777536468123142	-1.0470211922131538	-0.25330581036205274
Si	-0.07085902020809855	5.512148966155409	0.08968529093453315	14	-0.46592876413287043	-0.60829600792011	-1.5510336825691216
Si	1.3375707468885436	6.490735522292021	1.5541993674552037	14	0.10504379340730985	0.3109757026929742	-0.028967100978916315
Si	2.563443947839339	7.659891877755477	0.01618959408358116	14	1.0716032730685574	0.6826860552584862	-0.7537663187182361
Si	4.013681019583649	9.189239236196917	1.0417519403325468	14	0.34637133830385675	-0.012225091576240087	0.8521319231669933
Si	2.9101053373368226	5.166929093054838	2.5937690583693285	14	-0.34294996845433573	0.024682096852357532	-0.06738275689884482
Si	4.183435388721804	6.66759427016231	3.7704226307516047	14	0.9589837178354312	0.09203014382938034	-0.2439464727756497
Si	0.07265841885135901	7.955079812816751	2.838833504118984	14	-1.9975058643023034	-0.9445191935253422	-1.1763033096945634
Si	1.356496891730238	9.386903426844368	3.7853821086489052	14	1.1121825141153905	1.9775240050857088	1.83812381683792
Si	0.18317245652328173	5.504292202421654	5.36526077570594	14	-0.5368246793411656	0.22798556516923452	0.10444035498867109
Si	1.715685824418451	6.910491447610832	6.542996317670195	14	-2.217054604474004	0.14954705539375293	-0.03885814314552597
Si	2.892489207973617	8.113778117395668	5.0414455900740895	14	0.0276645790237293	0.5161334521667419	-0.3548847822399311
Si	4.3600244764808895	9.444415936116608	6.226435321943367	14	-1.2382168113563894	-0.4421874347171551	1.8918894857401967
Si	2.8680666576554694	5.561258733197142	7.878170085792508	14	0.8308981927700184	-0.6942434307830839	0.8005342102706656
Si	4.302160743236653	6.8356657604583395	9.220846064539407	14	-1.2691834609427848	0.055955222192914655	0.7634059067845352
Si	0.17288375808295528	8.141543121437836	8.008564066106855	14	-0.01118790769009235	0.12684522385897345	-0.5593989840520658
Si	1.673087849691644	9.553440184902573	9.122681461219331	14	-0.9117982787790097	0.3509646179583013	1.02518659450286
Si	0.2177888248722591	5.495443355809653	10.684983948559264	14	-0.7860552877707837	-0.7601953675712663	-1.0209866939623982
Si	1.4811447812799816	6.805681886488819	12.001681005358554	14	0.1159712481284712	1.8303840184926783	0.25871233062926013
Si	2.899730081329938	8.226812311909308	10.65471876249843	14	-0.39591730915470624	-0.7827210783916158	-0.7031420262961164
Si	4.202250007468124	9.531963920984584	11.987244201997777	14	-0.06742312325237113	0.08588905877220665	1.2773960855564017
Si	3.0347282583577515	5.615978096379289	13.160144172214881	14	0.17702085840272724	-0.7355348680035981	0.7769353200896865
Si	4.3143537081412635	6.891024317978148	14.657005810099548	14	0.1041004548653475	-0.3818708465696733	0.3965973665118855
Si	0.045281259290114985	8.252275217594743	13.434461746324072	14	0.7126600010807725	-0.9551437720397901	-0.8160953109997979
Si	1.3903825144692326	9.363457978287176	14.861915867809081	14	0.07685445178773832	1.2964754868056245	-0.25838862846945354
Si	-0.21869767932112147	10.528955611994956	-0.06454198241792884	14	0.599528024557341	0.26020897103611834	0.1653428980386147
Si	1.2357873714588978	12.050610998992818	1.1310726907463824	14	-1.2925409243342019	-0.6012424375848157	0.6875547002927187
Si	2.3871644698375567	13.560880736851088	-0.07993757728519618	14	0.007725657265980948	-0.2500171095470513	-2.393912711909966
Si	3.9291692078195632	14.713060157288998	1.0782559294599305	14	-0.44424226208901746	-0.026768548819657696	1.4407083246131636
Si	2.6724615383509547	10.72182917424712	2.3817496282218986	14	1.060148484646234	-0.06588714493411468	0.6386481633349901
Si	4.173544522173929	12.05885394263891	3.920295392678748	14	-0.9226750827253641	-0.5922980763970845	-0.9456175697181095
Si	-0.17100612471607482	13.28539962929912	2.703559008705619	14	0.49057357995808587	0.1133356080647874	-1.3111369577832372
Si	1.4026903346063906	14.56289110215325	3.7155318170049285	14	-1.1835301725284355	-0.12281013116953307	1.8032184910115896
Si	0.1411470933906297	10.862803152504632	5.386199383970115	14	0.34773196723927907	-1.292160143636288	0.10544051495820868
Si	1.5579895901293057	12.239416355616742	6.59691335879309	14	-0.8397677347929333	0.11110388864689885	0.7515726516590857
Si	2.8154047012476697	13.548065223294692	5.193778584373795	14	0.8967118040919768	-0.5057119909725858	0.37000390996452986
Si	4.339295603858761	14.69869659494608	6.595165561776048	14	-0.1772301463757873	0.23962650161673693	-0.22934696543625288
Si	3.092149216357671	10.857183568952692	7.781992977366101	14	-0.9945919838562901	-0.8294547742432872	-1.2084349271015178
Si	4.2864655260236075	12.004018059655627	9.264915517897704	14	1.0823222111482547	1.8133501886361654	0.17229850926121126
Si	-0.19992467478949197	13.554701858253694	7.823981719989825	14	1.4351220840840775	0.688252498276607	-0.1008516061828084
Si	1.3944224224314836	14.992148384970426	9.037105990127731	14	-0.12837426019286555	-1.1309762655635451	0.34805027007791345
Si	0.09395990306764403	11.034578307908205	10.541491478028622	14	-0.2734931008937274	-1.03424948364585	-0.4340504005999505
Si	1.3901045315150933	12.406602295424136	11.833205024895722	14	0.24552744543700883	-0.02969215267919808	0.402076906170185
Si	2.8841081051347484	13.607858191532028	10.359229540522792	14	-1.1237931115201152	-0.9538152819208695	-0.30656702840051625
Si	4.132792554010837	14.78980675659165	11.789483466372243	14	0.7371227826493214	1.1267555390699897	0.34122681366877244
Si	2.468788255102053	10.820816074449496	13.273334836175762	14	1.2624443367881446	-0.06419227230707306	-0.13436107893083032
Si	3.9351000656973962	12.231689428232823	14.461898396802743	14	0.29371407290509605	1.2667805059105746	0.42027750362098126
Si	-0.0099790886830217	13.70009193697427	13.312616990275949	14	0.43059612060233154	0.6015820805976072	-0.9091549253993654
Si	1.1184802293807345	15.49268083014261	14.485432067495081	14	-0.38640499080175444	-1.676120784610178	1.5764691132802826
Si	5.23509650585669	0.03308330067974251	-0.0712984663152408	14	2.126622145490564	-0.6967682562074693	-0.013294671389421685
Si	6.853241940175441	1.1371350495426402	1.2145524699861192	14	-0.14568551231342255	0.28643193130684064	-1.5547288751352382
Si	8.27724541097823	2.3008932090763143	-0.24920422782716628	14	0.44759678320021473	0.6641931231327892	-0.000298505327669192
Si	9.739307577969278	3.7500832671789874	0.9882227436905766	14	-0.6243561601918829	0.4180200731498912	-0.19824327593629354
Si	8.128334769694755	-0.18197563170875422	2.44064206485331	14	2.3610087344648387	0.00185350982529475	1.1360806809556347
Si	9.77904249472531	1.1841374727523957	3.7654355832629753	14	-0.6346961173473904	-0.25765354945842317	0.11114091256350898
Si	5.557773126574581	2.4311473656292972	2.498885319735533	14	-0.5726466042141287	1.142974585650548	0.8754135389514661
Si	6.90792468284866	3.7130016727516852	4.049898702913955	14	0.5653006992039337	0.6075095068026767	-0.6919847147593339
Si	5.602964499160963	0.05397030731770019	5.2351897216975996	14	0.6703095255788895	-0.36390396259247854	-0.23961313186907218
Si	7.2640341636497014	1.2747549220960184	6.587668344857226	14	-1.7613516404204266	-0.3354983910154825	0.09598604647496017
Si	8.610894867825975	2.633533937359938	5.427337532045545	14	-0.0052944200752489245	0.12992463670091484	-1.9970080983123226
Si	10.067335786696496	4.039568390258938	6.545609690352822	14	-1.3734806053651234	1.1331028267738394	0.06713387390385447
Si	8.664645452090106	0.03303169905352504	7.933370509296489	14	-0.8025674403578387	-1.2088416759631655	-0.7936760439397026
Si	9.943095716450728	1.4322896932321607	9.115600386447428	14	-0.22150149466235303	1.400519891574993	0.39214292654472893
Si	5.773221568012591	2.6676059917807504	7.882071834561984	14	-0.375006766696474	0.5245304250318136	-0.6578808024612937
Si	7.1541776305699045	4.179475380051761	8.967300641835621	14	-0.7756201997184308	0.012334106441814366	1.3486815232206992
Si	5.643947842357741	0.051699835764131945	10.546783141568794	14	0.1575089972386555	-0.5015820244968318	-0.48928802729801185
Si	7.052487470981168	1.2872907881296858	11.87723785774509	14	0.02966052808376025	1.184001456133619	-0.3047698257817328
Si	8.347258830343797	2.792878094550867	10.428264193558814	14	0.2749655729105762	-0.8615889627555618	-0.07350635843984149
Si	9.729909423723349	4.0922769545871915	11.751364845714829	14	0.04220855048821094	0.43428308563142387	0.29271005627757823
Si	8.445924468808757	-0.012492587250388302	13.182710728557787	14	-0.14497331613974151	0.17319736768113503	1.0111830693766735
Si	9.918373543786803	1.402590460491131	14.455553061346585	14	-0.4912688068366539	-0.6893159074370202	-0.11144687409660663
Si	5.633184741869931	2.748246017009939	13.20421362557318	14	0.681515945227287	0.49659382306521266	-1.1659085879957367
Si	7.124658171236343	4.001186767764674	14.499995378068519	14	-0.5819419212780601	0.9147038849013092	0.5218019680660724
Si	5.47374903340668	5.080251677558207	-0.10157863349336385	14	-0.18433848125440072	-0.7713915027983832	-1.3378985646185302
Si	7.0212152209248	6.336176999790615	1.0308989531410035	14	-0.04160922583808442	0.6665091748051787	0.7027825857723597
Si	8.206219933911365	7.837724398249546	-0.4119674088971487	14	0.5580769216964456	-0.21365885210430535	0.4525649300103368
Si	9.62862708343859	9.283666883037693	0.8037236260029298	14	-0.8124559114191281	0.6874937650966312	0.04746903197323391
Si	8.333494512692438	5.043616187512398	2.5496713073450397	14	-0.5584710721420243	-0.940087379285003	-1.0456387088825099
Si	9.609194909746247	6.546170649966863	3.6375817346133985	14	0.575032332840694	1.0265086568584803	0.016896275721885116
Si	5.659115391328498	7.838475118682581	2.305330948931016	14	-0.6612317240250426	0.31341465319966666	-0.2385196407764132
Si	7.079220442498988	9.251286030301943	3.525666130190666	14	-0.03282555873286253	-0.1815722290404534	0.38924889039637023
Si	5.563011523919948	5.350843947168216	5.114876368750123	14	0.5542308052480361	0.10862380045508403	1.3560243429045102
Si	7.000359841090008	6.812658093439703	6.5929117359083556	14	-0.9668199326301787	-0.18188744655270353	-0.5118358496241145
Si	8.33246913844244	7.9263959669141935	5.018336384371606	14	-0.37831320813818436	-0.0983599480170529	0.03714732966549944
Si	9.739347527615381	9.141218097011514	6.382287214237385	14	-0.2115274057939026	0.8723305265620765	-0.5262345536380076
Si	8.559617832483111	5.580301397839972	7.842939491634684	14	0.8231853910306383	-0.2554159164982983	-0.36055844034990187
Si	9.892779137182941	6.9243023731826465	9.346679126923563	14	-1.1257512653319401	0.07397815626608865	-1.4073631454950992
Si	5.446789680560939	8.282064337039506	7.955900445130467	14	1.633014918365235	-0.09074741938515846	-1.363890125410439
Si	6.9460649428977135	9.665528904458423	9.140683770494876	14	0.24248814183806175	-0.7854914443740753	0.710789264849833
Si	5.7038506721218605	5.523664451644841	10.471383178253559	14	0.8697046566986093	-0.49761712298263155	-0.41744106023179395
Si	6.996301622873292	6.886599894672147	11.87355250289201	14	-0.39603506577836906	-1.033188645590757	0.9606667633780003
Si	8.26589971148474	8.173091689879756	10.582945894135706	14	1.1799136557851155	1.4941420638186087	-1.1100284420781705
Si	9.741215173570737	9.543138169913547	11.913502148995851	14	-0.043045702380451155	-1.251893291885853	-0.12576715939823538
Si	8.44507553882905	5.538395883645632	13.215421165873893	14	-0.14934805184197347	-0.8444206640908051	-0.5067309200109604
Si	9.914155526985672	6.803023570454327	14.478712204106698	14	-0.11161296750028818	0.8288073699236739	-0.7984924955359359
Si	5.746743275488684	8.23124339348966	13.34570861379863	14	-1.238974258983705	0.06803247521324624	-0.7222885333941952
Si	7.037354877950751	9.663178533612648	14.535950059561975	14	-0.2387440982708621	0.5450676429975605	0.5452558479069952
Si	5.231892211325445	10.690047566202928	-0.26929723524881016	14	-0.06607097896450527	-1.2476131728594024	-1.0645782420023167
Si	6.60000779179755	11.81041541636207	1.0993127220938297	14	0.7476997957153467	1.8189755099661171	0.21311043533951776
Si	8.027719921413645	13.315430111189094	-0.16705443888896995	14	0.38317388274592434	-0.7064489819588908	-0.46498953935942033
Si	9.578039179491014	14.530769922117177	1.1336361263713788	14	-0.35767134618590757	0.366533946224458	-0.8222397384938878
Si	8.297806162173007	10.7234504640515	2.209163827916135	14	0.14507127525243915	-0.982610118843336	-0.21156185860519258
Si	9.71400447086826	11.937163991469438	3.562466412526653	14	-0.3801800877111439	-0.45395332688321677	1.445908128012631
Si	5.30330886201041	13.385894628641918	2.385734605420757	14	0.8447322820556071	-0.5487733770954898	0.2672103479334136
Si	6.8150450847944075	14.592219136099233	3.751504808752849	14	-0.1743265971377441	-0.3301206671278608	0.9552867254955902
Si	5.719953708638883	10.549484736386566	4.907021689209018	14	0.05844328081122195	0.9648522657286691	-1.041942744984797
Si	6.8568290854818486	11.907230054557548	6.320183824800378	14	1.1838986119208128	-0.15552487526309722	0.1675167675867999
Si	8.346273405739902	13.166507817925504	5.125075180486715	14	-0.13371933104292139	1.151654122990304	-1.2576847066194865
Si	9.741990862532585	14.586574584018479	6.419282251098129	14	0.15542948725571976	-0.1415917984226828	0.0016401080837224597
Si	8.40531898268138	10.668163482980962	7.552029497843697	14	-0.05126861141534874	0.17850824283043293	1.2200714926699763
Si	9.807300211069425	12.002055533290775	9.002489621778755	14	-0.8115966480211346	-0.4167640882009989	0.5546676360419294
Si	5.848623195896414	13.310887503513369	7.7934685132094295	14	-1.4324383643509073	0.18714407137974626	0.9412266360523606
Si	7.137941428565869	14.753742213571408	9.128610654528577	14	-0.4482984378420831	0.4198674123224177	0.28005559011287334
Si	5.63174821917878	10.875392284733104	10.784350370399629	14	0.3172903373592578	-0.030168578495021515	-0.9637939987788963
Si	7.028123180563589	12.309772676111367	11.96080086541421	14	-0.03669790045553756	0.14151466526307832	-0.4769924874359996
Si	8.501326305111844	13.449154893247346	10.484005601853784	14	-0.48505315972519586	-1.0870648720218	-0.6448057034662127
Si	9.798767632489081	14.72064226720579	11.815377495321883	14	0.7429105978355068	0.5993063952787442	-0.014456039662532574
Si	8.436211711099759	10.960631512969998	13.184476835829294	14	0.19282235747929333	0.11057552650360844	0.6324656834821619
Si	9.801632355028444	12.441794604504445	14.410245168959065	14	-0.7062047269534769	-0.839365613920862	1.2502297867437173
Si	5.587733696583874	13.687234809203183	13.219750708770398	14	-1.1427907516201572	-1.475544487706382	0.09724974473981296
Si	6.736455808065216	14.96520567781056	14.678538669349518	14	1.1797681312239952	0.9092814237811166	-0.1297423453337163
Si	11.07020007568413	-0.45191039672663813	-0.4133440071191436	14	-0.4817644589101945	0.9295731011887892	0.6804119126028154
Si	12.505178047185362	0.9517836727381115	0.8406271115913521	14	-0.4683402038126373	-0.10302624706258964	0.5603109551091222
Si	13.88462268146508	2.2156223540362556	-0.528021130828804	14	-0.20755710495852997	0.16168112984165978	-1.9517422464879237
Si	15.240437100074377	3.672985443904339	0.6027253044743971	14	-0.30642536049737606	0.8520835863869743	1.0583168292161602
Si	14.074917826974959	-0.20198541070101506	2.127426851987678	14	-0.5306835942839918	-1.139185547740246	-0.40916621486942933
Si	15.382261672880185	1.1859668336302338	3.3105223048041985	14	0.14757090384468716	1.0647296801056736	0.26180768432418644
Si	11.119368102626431	2.378350579165897	2.210117625716864	14	0.45299559015146157	-0.11448900591140583	0.6442696280069619
Si	12.437614872780829	3.8428130540603505	3.5858319617916368	14	-0.03564554704800095	0.18838282992299363	-0.3291595879591894
Si	11.235744750864091	-0.2288665288231364	5.080359874516406	14	-0.3375519328346848	0.6254486228424139	-0.6027534761814667
Si	12.512621997909378	1.3989766820873213	6.239651996529387	14	0.5431915074454483	-0.057990252053811864	-1.0987194353274992
Si	14.048887303401132	2.6186144091087415	4.731789224848875	14	-0.923366710056484	-1.2282126405556932	-0.15515360765486783
Si	15.348667349644032	3.8542120197486462	6.066668364331172	14	0.9089803473481274	0.2457251634361282	0.7884417877289451
Si	13.825314102686754	0.05188127374018688	7.480672771627888	14	0.7693377038686489	-1.6171866797933394	0.24524745206764464
Si	15.368618868735723	1.1961090500348464	8.74257722422717	14	-0.0801930320459506	0.7800445577533415	0.24306098410339072
Si	11.44553865280982	2.710040838785967	7.775557755206208	14	-0.9897968724342139	-0.42772496729132214	0.1881254622804468
Si	12.658583023655519	4.1167677522174335	9.056786184539636	14	0.18717261064879992	-0.07045677041961386	0.3743951007408107
Si	11.157797997609737	-0.00041947128409032004	10.381866008746378	14	0.07120547628884097	-1.0302480724361036	0.2726991435708657
Si	12.46554966281894	1.2732135315838453	11.743676203408427	14	0.1734830174822035	0.8666203587565598	-0.9978084366117953
Si	13.93988802314398	2.5350231037736317	10.274584563271691	14	0.5488353407337053	-0.05056001478911593	-0.1746045336228521
Si	15.472576170740853	3.8702501380907504	11.445159131171835	14	-1.2984863482765125	0.8421022984236275	0.2853564379514227
Si	13.875931968868908	-0.056418887710148045	12.909368591640963	14	-2.0454166121695385	-1.9275689713784234	-4.114694881483776
Si	15.52447242559833	0.9984348719758707	13.889876059927737	14	3.0524648299703503	2.225294482804015	1.4783307945418263
Si	11.183861812555318	2.7278983305943836	12.9771198622959	14	-0.539574219370532	0.14404746111395622	0.4449693706735553
Si	12.558872036117512	4.095130025146441	14.222322033686602	14	1.1033024305606631	-0.31469789186495256	0.27370881663008784
Si	11.147336184036295	5.142499884462341	-0.4394028283589609	14	-0.5883861396524792	-0.8580153834710881	0.826673609618483
Si	12.30958624442955	6.475817658609413	1.044746499221747	14	0.6280786064743933	0.5269644904383978	-0.2466993552419323
Si	13.70799364405989	7.758772245568244	-0.4347819859596167	14	-0.017300967699276425	-0.3197938226094861	0.02893187683603029
Si	15.185687774657652	8.920621144931873	0.9267402383367668	14	0.06561897864922323	0.7849967637104787	-0.09997665904236201
Si	13.892842321150944	5.129388077697342	2.251079329522001	14	-0.2728937762436009	-0.43363670975393864	-0.8977320186830114
Si	15.183074401975027	6.488741369124004	3.60596824799656	14	0.3896754367689828	0.25793045750140314	0.4816590435920684
Si	10.880893683915321	8.07437444978858	2.2225552822038597	14	0.8528371773563099	-1.9570001568676265	0.77571198817836
Si	12.406192811551572	9.15554836798268	3.6253088704165815	14	-0.2534063405800706	0.37929819858633307	-0.2167156392194294
Si	11.09683317308669	5.368306936221358	4.939938533029994	14	0.6072241141121402	-0.84978476112023	-0.2761742495215778
Si	12.46793332503647	6.6637973892138564	6.272936710008237	14	0.379939175142646	-0.4085429789398254	0.07256790499798745
Si	13.840110452862463	7.989706168577254	5.001813876570493	14	0.8196987151059854	-0.5046066727954541	-0.6055438967854234
Si	15.28601132343592	9.331957682334298	6.278448096601979	14	0.5268161376614252	-0.36782669797942846	-0.18433745281227265
Si	13.917361416447177	5.230444036654181	7.4136522465829335	14	0.303020445721904	-0.43347550145036534	0.15562411992845493
Si	15.393514156532767	6.422736230917524	8.701525633718301	14	0.1710458667492351	1.2387965956060827	0.6297138294580074
Si	11.213489468847078	7.992922115088613	7.671334122227052	14	-0.15977388391517397	-0.004705122735870985	1.3593413258780334
Si	12.50218515286475	9.361730156093186	9.106416961549307	14	-0.5709607304557076	0.036915930186686124	-0.6264958340393101
Si	11.162260705993253	5.418693427369826	10.424658737997943	14	0.35844756288206026	-1.1003785695905908	0.01642319234297787
Si	12.740792737062872	6.643456361072651	11.508222976683921	14	-0.891003693170716	1.5895275000907825	0.2659764744902745
Si	14.0261892461398	7.978883143620289	10.063550557728156	14	0.8224258865190665	-1.0276116610408237	0.2613939934781746
Si	15.446792003318	9.231282909584033	11.446525741982303	14	-0.37083180587761755	1.2200128714686767	-0.9100797519830228
Si	14.002810380326116	5.403976976486324	12.845067971668245	14	0.9504761874415932	-1.8667055091293463	0.40661413572865035
Si	15.25570785229757	6.788470247292415	14.182112714883088	14	-0.020815925782450864	-0.2777850470046506	1.1212022086890021
Si	11.342799815010856	8.081135927391655	12.987252091288987	14	-0.4940983082414769	-0.0673789002408646	0.21320736601008736
Si	12.594016072708776	9.534582287372974	14.374804839159196	14	-0.023234307446582145	0.09528104939617557	-0.5119026983624383
Si	11.051914789748684	10.672248334295078	-0.4088363553837603	14	0.48230799057487383	0.25237147068871096	-0.3659140527317703
Si	12.661106509634413	11.884194089872922	0.9934661347417056	14	-0.9425340431076558	0.2976465784922625	-0.5691488725365993
Si	14.186245838686247	13.04571673379337	-0.4862288072984244	14	-0.27971800398433794	0.9251302311955736	-0.48929574061397224
Si	15.765175701648317	14.79719910568945	0.6545549765883665	14	-1.3036606977333103	-0.6662356091991148	0.3402760189213817
Si	13.85404122737259	10.427888001058003	2.322710709554774	14	0.24522791166721156	-0.8086519610979691	-0.4461096558830411
Si	15.224801807330488	11.713009856317967	3.6327361754547205	14	-0.40867487664274904	0.9253320629632051	-0.31901092103950096
Si	11.069828876889082	13.218359129431112	2.3023846625308577	14	1.0297086545399368	0.12260907073349749	-0.6142334614359278
Si	12.519842896442645	14.534480245499072	3.5289270200538922	14	0.3732201056095031	0.3881620841775436	-0.008875712675683182
Si	11.0273757196294	10.488223618654915	4.954987897631029	14	-0.057117104687089575	0.4049891971663168	-0.2127633361212978
Si	12.49187647960137	11.810403764381954	6.225905989132491	14	-0.8628554892362669	0.8607968052064243	-0.24069351032459838
Si	13.852603040112854	13.164104180884923	4.889628612036559	14	-0.56297899109984	-0.5571078721012819	-0.8035272339738501
Si	15.113736797456049	14.713782580056042	5.891690578964941	14	0.7870166240499871	0.5697780220084395	1.1488217933696288
Si	13.759756733430352	10.586368247151936	7.613745042799779	14	0.8637363499189497	-0.4838030883185399	-0.04691984387685028
Si	15.129929720676806	12.033688994730667	8.719213339530775	14	0.8665429684864232	-0.4270225413178578	0.388134059129554
Si	11.20571926267988	13.207454540613353	7.6787381233049645	14	-0.13566025844910115	0.31739600978791593	-0.8651350312131101
Si	12.458370378500362	14.688431200465981	8.895001769799197	14	0.34416661549182975	0.6373353569585224	-0.02221897795565567
Si	11.108275417558264	10.689221940183446	10.501375375066015	14	-0.362801729741731	-0.05208879401247598	-1.4631103652676136
Si	12.582778570173485	12.068480142781349	11.488998874065034	14	-0.6317969389883914	-0.36531627074483586	2.104507811521438
Si	13.843229854395739	13.288177794271924	10.170124561553088	14	0.40164290359214405	0.9947845596447691	-1.4069671952757963
Si	15.240916495827623	14.705890860381945	11.22489675737831	14	0.6429264825877165	0.13316037274632117	1.3966555202788102
Si	13.978837263526636	10.634494254158362	12.737733259998754	14	-0.6571169270706776	-0.6365987352843	-0.2132215070893482
Si	15.367417050215433	11.914083083432944	13.938779420464599	14	0.3147179464864497	0.5303503790345008	1.8143670607902838
Si	11.340389519695925	13.447691737458795	13.078006035256797	14	-0.011403880536984792	-0.11562723423663539	-1.307218336164799
H	14.960663070134835	1.1618422410892775	12.389964932390475	1	0.2471544408835985	0.15014792270707156	0.477363755044229
H	14.4394583476725	-0.1411637390765063	14.233937393291294	1	1.151133731273506	-0.128469391089711	2.247757972875616
H	13.08235055927059	3.105568968311386	0.42743458021368547	1	-0.6302694453176915	0.5170749909349802	0.6217950821824835
H	2.110433271276257	14.335083238951867	13.624718606756435	1	-0.2613903939307264	0.45556978079799393	0.031658534028047323
