224
config_type=interstitial dft_energy=-23326.543396394733 dft_virial="-28.814569785270432 -19.072385551730722 21.556400188391965 -19.072385551730726 -14.168981049443325 4.774154960217221 21.55640018839197 4.774154960217221 -27.829042026985316" pbc="T T T" Lattice="16.3852778749 0.0 0.0 0.0 16.3852778749 0.0 0.0 0.0 16.3852778749" Properties=species:S:1:pos:R:3:Z:I:1:dft_force:R:3
Si	-0.583987688739311	-2.186320397403657	-0.9617502701451305	14	-29.866716332246337	-13.028249599489962	28.894658800968486
Si	-0.1182689357010282	0.07378290627067471	-0.18810299000385203	14	-0.5365549703930821	0.6994110953660495	2.001526044580887
Si	1.226126728656642	1.3886359146199003	1.4047754133266768	14	0.3067027827614201	-0.43587022894555133	0.5194722895354862
Si	2.639684650924265	2.7353419031579316	0.17081652184583251	14	-0.07499502842020722	0.16099001673160396	-1.2969825087747577
Si	4.271166768928058	3.9183261951699615	1.3438385649099238	14	-0.38236449879114176	0.7208944800896109	0.7052341346951209
Si	2.7851039920640024	-0.023775038196479904	2.637882270358026	14	-0.1941467338297016	0.009456011146440605	-0.0948560456867551
Si	4.184373952024713	1.3607645569546953	4.0030380817831945	14	-0.5426202078433114	0.19312214835962258	0.3881587417406274
Si	-0.0968533775185339	2.7954594876809398	2.868816376726867	14	0.34650786399635664	-0.1792723753315809	-0.6969135236580577
Si	1.341642937674687	4.189158453164184	4.1749524172466455	14	0.5262893181813268	-0.7213202551306274	-0.18287706499042855
Si	-0.08856242691383451	-0.17484730020305791	5.527327711929392	14	-0.25246531603289635	0.9155865453577159	-0.33577452772686645
Si	1.234286597038342	1.325749218136034	6.725566697642954	14	0.5063172291649486	-0.3433461757841705	0.4943970706796781
Si	2.6614442999421324	2.6465173117980982	5.445450478388517	14	0.35693241051689695	0.04674295183082409	-0.6873060744082604
Si	3.9779849919124723	3.959043610689088	6.897268024494031	14	-0.4035545203976741	0.8170103673832384	-0.8122293970404232
Si	2.691462129008949	-0.1450916355822395	8.039731524321434	14	-0.49133257024859356	0.9982573516006932	0.5835002682126018
Si	3.9673837171274124	1.2514583682512375	9.55284639495695	14	0.9201967943072733	-0.604930431056036	-0.25176391850156
Si	-0.13940594415964921	2.8108616488833458	7.960508705796292	14	1.5290327343446144	0.02073596440699426	1.0294093778806714
Si	1.5054301753121875	3.9936001617272523	9.519092722534655	14	-2.086328554244799	-1.168396903724576	1.41845772206207
Si	0.037161810220273206	0.031951291856055004	10.96365159054159	14	0.8355333814411813	0.3319626069792149	-0.1915931120257305
Si	1.5409862283007205	1.377723319555217	12.420597728621948	14	-0.12405017526544049	-0.6514044452703727	-0.5054068007710841
Si	2.9786141237665715	2.686251610644731	11.037205102922016	14	-1.241355873841758	0.5359057662997447	-0.3707798695501505
Si	4.317668187537024	4.235430477882901	12.239376555325554	14	-0.4371691513532901	-0.9969921106726483	0.09999002879002677
Si	2.9498088052624976	-0.08202470104174941	13.756522204318296	14	-1.3016827464105207	0.2905320729608808	-1.2270389309770453
Si	4.0155728193574936	1.2791003320261936	15.225216586634957	14	0.539765509606351	1.3597624729294735	-0.15789440592614568
Si	0.025708500985718103	2.692789336516816	13.566010578466832	14	-0.27328689824705155	0.4468997565479225	0.5528652912125055
Si	1.3032850021695461	4.1461470987425715	14.956596341153846	14	0.7638825897108906	-0.4526109527955675	0.17750474042397912
Si	0.007471686710954401	5.4984896228695685	6.55411114996e-05	14	0.648007758031925	0.5168564469827676	-0.39635876793817565
Si	1.519947531509349	6.682784737111591	1.421422855647575	14	-0.3182491025331411	0.25513309491308206	0.01915216352978304
Si	2.6110923410325646	8.11646378060959	-0.105685042293105	14	0.4590687980281834	-0.03689536134412493	-0.3716969828178473
Si	3.909461759839641	9.581815566239774	1.227453936164509	14	0.5423314727158588	-0.6095944161067848	-0.11187033514283502
Si	2.936258180459955	5.347974460310736	2.8726341464717184	14	-0.4026417780090215	-0.024313914570512324	-0.8139530660470504
Si	4.223616692535099	6.776508526556019	4.207575505495572	14	-0.24476716959384098	-0.21968860830111664	0.42302061588704726
Si	0.12303705156262411	8.160884268928445	2.71674461276992	14	-0.038993640395897776	-0.055282363930631906	-0.8429343081052275
Si	1.4523091044417618	9.484781950664615	4.06615417215731	14	-0.6962028701475689	0.5750932680367816	0.3944746619595712
Si	0.1449441680813654	5.672665126679755	5.502880877340042	14	-0.47231847507450253	-0.4490101197947	0.052343847660234664
Si	1.4517520049940151	6.943802213658747	6.971821038824826	14	-0.864783818226378	-0.5575956107805139	0.717841806742999
Si	2.664573888016238	8.081825303182052	5.450038356193489	14	0.7567611421951445	-0.05042040377023189	-0.6832552979763671
Si	3.9770182605178532	9.571951628959084	6.6830960573912135	14	1.0300277287101671	-0.29191352784939634	0.8130071563997678
Si	2.6799596639407697	5.356822510363183	8.28950870024641	14	1.4730690275041434	1.9826430757781235	-0.9192855945818129
Si	4.168807938043558	6.878785431051144	9.543031613509886	14	-1.4049054259195695	0.42953065455766215	-0.10538292219903737
Si	0.025036704592847205	8.401616771466475	8.258786304230972	14	0.6345223106277484	-0.501844534350019	0.008571036695245636
Si	1.567153517066936	9.736345121877955	9.454829662709297	14	-1.0363081676756924	-0.3928060146067951	0.6940927640113232
Si	-0.040062004404130505	5.380728630782662	10.919034478888237	14	0.4955304139047994	-0.60197674526425	-0.6257604979177478
Si	1.2465100143330177	6.862006906507247	12.154058413430949	14	0.7121028425578966	-0.6975483295616023	0.6311433640160098
Si	2.6400451270375127	8.26974805512928	10.941711703467098	14	1.1930088094016935	-0.04743869293045616	-0.6063036584075271
Si	4.046655691486178	9.657171459186438	12.33269071282311	14	-0.39458830481472174	-0.2953999466635171	-0.6297858204069716
Si	2.7591169413544114	5.413204251530714	13.492784771643905	14	-0.6737098123647853	0.665090953110585	0.5337979741582873
Si	4.128467383915554	6.75417539281253	14.922105331227181	14	-0.8094304917889099	1.1630271502634468	-0.5002183102350254
Si	-0.15421823535855883	8.107959821392518	13.523212232657594	14	0.34311554763695323	1.330341057640487	-0.022882323128253872
Si	1.2180324013864414	9.525925383408488	14.88622157268115	14	0.3351818879505723	-0.44157062655085166	0.16585480510785616
Si	-0.06244429398124391	10.826572355840176	-0.0107159717301846	14	0.5184384480862547	-0.17108983265020966	0.8249733376702693
Si	1.3381692587652083	12.273113842469972	1.3922406757523782	14	-0.029521431285940244	0.09445109659883177	-0.7286160235870796
Si	2.8084530130357352	13.64652783394409	0.0055382239217162	14	-1.0198644064901536	-0.42759949735169894	0.5134895845660338
Si	4.239084394849004	14.881912244600052	1.2932244415543575	14	-0.6996586928083798	1.015098091447663	0.8636862133652068
Si	2.707093684101604	10.871173082215654	2.701178598788765	14	0.475989242140078	0.9268839821344466	0.4632458157312959
Si	4.164514995240334	12.266789125210261	4.14637649263282	14	-0.2472112623111738	-0.4856293444274411	-0.4761604777543998
Si	0.008798894218821301	13.671449841591814	2.7314094364679558	14	-0.6578057261859455	0.0568831341029561	-0.1505153336573207
Si	1.2779042067413262	15.10725897121355	4.050129370395657	14	1.3855534875064108	-0.7049153176354226	-0.08455311244785771
Si	0.05987180535488461	10.917821968325494	5.435832320275951	14	0.5786660759896595	0.41273619460645494	-0.2988346862607029
Si	1.2706619139206203	12.422187100575814	6.798939971966756	14	-0.016190250200972454	-0.34969372059855214	0.09934236735988149
Si	2.6986224954402807	13.611004551511307	5.404192348699518	14	0.1768812473838432	0.9471381214044451	0.0430811836338692
Si	4.18656957925995	14.944684244138793	6.8229280187756105	14	-0.08812772017445959	0.1835730632005926	-1.0834660959051885
Si	2.77569884256381	11.072335138685801	8.016890446963822	14	0.49406334120912276	0.4833089218760074	0.6519369211821754
Si	4.239477641518001	12.257744451823315	9.613930710874577	14	-0.46240789250745973	0.19067034232632937	-0.9952229331018544
Si	-0.23270371637932982	13.674202568274797	8.172665283720498	14	1.1759564675868757	-0.487952852305259	0.4641300188508949
Si	1.2554236054969634	15.000492500580703	9.454223407427927	14	0.035633462852996255	0.07433399724239716	0.11222231946116328
Si	0.074061455994548	10.943235534309464	10.93278172702528	14	-0.5189524120397524	-0.16941295776040907	-0.5223241595565945
Si	1.469988819268779	12.362167827720056	12.191416846985721	14	-0.28783472636951346	-0.4180560686243734	-0.09412996554434529
Si	2.7111244624588293	13.699681675370266	10.774434401642244	14	0.312309335022535	-0.07968138208724114	-0.21367659273101441
Si	4.049555885670036	15.11792578711011	12.068281483755847	14	0.08574430554268232	-0.7851667137721404	0.9162311214614769
Si	2.6312790033744418	10.998486691303627	13.636352576383779	14	0.16418538642348401	-0.4140533718619668	0.2931682272456286
Si	3.988061937805536	12.391513860394001	14.910619251436875	14	0.6710422905951318	-0.9717381999970898	0.23518414584458508
Si	-0.10329279172336961	13.556965905079887	13.358867895572347	14	0.13781355915472515	-1.537274669558881	-1.4200458938183254
Si	1.4564381944662363	15.08187817578533	15.10575152564906	14	3.0352512798519586	0.2416677021304025	0.21508478711485948
Si	5.5102542523837466	-0.033737287144419106	0.023594800139856004	14	0.21888488077803833	-0.10760307164298524	0.1625285661551806
Si	6.949291281746839	1.1531794715575872	1.4346130043368694	14	-0.07024311156750954	0.9392641113614916	-0.14693352683582242
Si	8.281578225754958	2.490808016152924	-0.019023307612758902	14	-0.8383150602870495	0.9791617523879533	-0.6455158427556376
Si	9.561219271951023	3.976297308291358	1.2601097949691846	14	-1.2652668962086033	-0.13565537334899286	1.1823250954648823
Si	8.38454331192083	0.03722735133177281	2.9048967586073964	14	0.5083306617411566	-0.8988468499498278	0.07798470968647542
Si	9.612030018641088	1.617243311530505	4.170708630277046	14	-0.13353318301774267	-1.2377270157929012	1.0407803482695581
Si	5.726130288385554	2.6967218032067923	2.7966719982436823	14	-0.6529077705510633	-0.34532618399121656	-0.5859078512343885
Si	6.956173098454298	4.07424849942751	4.205150484370086	14	0.0014858417645135747	-0.14319025460021884	1.0195885268893017
Si	5.581939843086434	0.0567913731144034	5.418742475452429	14	-1.043971347082394	0.02177263407207796	1.307666479822101
Si	6.756584028660139	1.389832039904768	7.027367130820737	14	0.05483344894173406	0.10580046970302942	-0.896472177076139
Si	8.280185477135591	2.750023112133842	5.795718563520254	14	-0.8573772351306274	0.12514083814224733	-1.4731921834489783
Si	9.54288414600901	4.226746280609205	6.9911884372729585	14	0.4879880764481449	0.01661782501571308	-0.20430182851269044
Si	8.323032978778455	0.09434643000367421	8.14036990102907	14	-1.085001817112913	-1.4507243224983324	0.06491783822841886
Si	9.425549171146852	1.4264203653994196	9.60585276888225	14	0.8719361190059659	-0.07579875594328551	0.16373698565565017
Si	5.269325126511217	2.759182482465911	8.280791732416963	14	0.45269014283942804	-1.2905740287642886	0.16673360890628278
Si	6.646622428841686	4.099612909577855	9.519191034201905	14	0.3532449312667406	0.63246799747695	-0.1395917355941396
Si	5.564849998262913	-0.08715329301659311	10.841925361208958	14	-0.35911810714955483	0.825805090241337	-0.4875270772642423
Si	6.829203580201697	1.229567637010371	12.304196714598659	14	-0.1692445503619394	1.3014431193946827	-0.8605353237953653
Si	8.037519511808322	2.833096470959585	10.78726407421829	14	0.39068048183862863	-0.6929028564691587	2.0326117363436054
Si	9.539246614320783	4.163253328843967	12.239081620323805	14	-0.5997501680570018	-0.1185307834746786	-0.1582021672329674
Si	8.254689984762248	-0.0736190534919257	13.549297595034433	14	0.5088993902379734	-0.1742157824984457	1.1315570782553663
Si	9.70609789892089	1.412591190873004	14.812700830856473	14	-0.524693947330175	-0.2284915586962396	0.0444130161897059
Si	5.424034920206023	2.6130749596554277	13.642988613923112	14	-0.08879903577355025	0.14633111685931172	0.2899908552909896
Si	6.762728507863227	4.04314924202095	14.972916077917247	14	0.9007582096448258	-0.5635968277082716	0.47501505033427377
Si	5.38674202776275	5.435045826937956	-0.09113491554019382	14	0.6862192681894338	-0.586401503455857	0.6818064801284637
Si	6.645606541613442	6.693943111344398	1.496500198870367	14	0.8414579794303986	0.36123412682803674	-0.5794356078119798
Si	8.019036918365435	8.267290263448045	0.17009556961933692	14	-0.10148306964943675	-0.8598313551587088	0.05759533027663712
Si	9.611554845582717	9.513144866666066	1.3346464240221048	14	-0.11282241544288583	0.20534132639362634	1.1044262606960997
Si	8.254886608096745	5.401128301736913	2.8042911524555105	14	-0.18381474710068654	0.12242292270831877	-0.6880007870657644
Si	9.548471525764352	6.82954767103707	4.173821833073277	14	0.7394666022591685	0.26503853526948457	-0.9832603513788013
Si	5.274126012928562	8.199717377491957	2.6641642560693657	14	0.04942384334814249	-0.260393062177041	-0.19624552710253845
Si	6.749014030281937	9.420584431950756	3.957126533177725	14	0.8670900996985509	-0.14401095141841008	0.5306098035613037
Si	5.508369945428132	5.32441243072663	5.70130659240508	14	-0.8048305272606331	-0.37725519829894344	-1.7161192129651894
Si	6.77373941459516	6.7248621306943335	6.895170708926044	14	0.11354618159050751	1.9024341028791878	-0.058306755118722096
Si	8.14692401217903	8.10114354579656	5.487069084190763	14	-1.47353311201443	-0.40802027322823936	-0.8020136242718788
Si	9.281915825295478	9.514144368616435	6.800906205311744	14	2.00033330882287	0.34942272609780844	0.26147986839586757
Si	8.052495655785982	5.494458844512343	8.248987908061782	14	1.3348212086608453	-0.12725788626285722	1.2261572989627667
Si	9.657105918074938	6.819503495699756	9.61645404366731	14	-0.5258841119828714	-0.21712958717597322	-0.6467075500715261
Si	5.492328758388606	8.284642272717566	8.1928355607845	14	-0.2890629433809481	0.07428848867823054	-0.19255187719961372
Si	6.913473064312307	9.546669145198111	9.715945450923705	14	0.702734763213405	-0.7952451895165891	-1.3036396146696851
Si	5.554822208203475	5.642565371223564	10.84721780596255	14	0.4895081139134166	-0.2791490183769892	0.8782276137243682
Si	7.005951572638243	6.861777512616998	12.292120764804856	14	-0.806443895849026	0.8862268365964129	-0.3398461301118529
Si	8.462438922938103	8.264652233710187	10.99224390043329	14	-1.0194669136076586	-0.17839048620677012	0.44795673794503543
Si	9.514127983338561	9.690810434663607	12.545781251586183	14	0.30280293021181953	-0.12228588279475487	-0.9783194582850728
Si	8.208090254486033	5.509402217934252	13.718475589092776	14	0.01705259892535012	-0.6649400292282922	0.04530981772537355
Si	9.384258270902103	6.972197900215949	15.143372123649831	14	0.6251030662873859	-0.6577401630002816	0.2570660518927693
Si	5.441944028923288	8.305435190340813	13.550460949763552	14	0.8226179480864814	-1.0870443031792385	0.9733433410484584
Si	6.755731994210644	9.618059800899053	15.13039498357291	14	0.6202099957526122	-0.5424314887128125	-1.3964179501472287
Si	5.3558557789685635	10.899322989604732	-0.09813142919277612	14	-0.7022094863964987	1.734522413515213	1.1555341780289392
Si	6.704347762794959	12.339441447307568	1.449818542204777	14	0.6632893796127572	-1.206474716405437	-0.8221060410172399
Si	8.156198079456223	13.690718928372696	0.09231465554718661	14	-0.6799221170393271	-0.029080486723534846	-0.5012346681680799
Si	9.564529098081753	15.040734743041458	1.2927328832181104	14	0.146752263910752	0.4037314124437003	0.9573554368361814
Si	8.144171285496046	10.86456981523207	2.740667118467274	14	0.3142824012452166	0.3344234118811286	-0.5916056777343687
Si	9.474524766714929	12.388285960652645	4.027992859986667	14	-0.02524491180693794	-1.0071294647289282	-0.059597449989436425
Si	5.5248699202481575	13.720753142717388	2.8365537645911885	14	-0.5662111275977981	-0.24561691990214993	0.24048807900951857
Si	6.87468911158242	15.104866720643816	4.137872533415747	14	0.7125347882516814	-0.7286479052930493	-0.047492686142179275
Si	5.5354220391995925	10.726720472470536	5.398686895333552	14	-0.4063205155010894	1.1693710955303804	0.31526662036176933
Si	6.9178479335049055	12.144538566985632	6.7860611435570855	14	-1.1350121295845814	-0.4876826291361113	0.7482014183633076
Si	8.11344888948061	13.542907336663223	5.489182785036625	14	0.21411907995661186	1.6209340657974551	-0.2572473148178398
Si	9.554468537466564	14.931346627948626	6.785897290778336	14	-0.08206325405582632	0.8209729549026507	-0.17363471269609224
Si	8.256099118659488	10.899306604326858	8.27289402848126	14	-0.8800340723223042	0.1843901604713357	0.16934122392197695
Si	9.748666850839879	12.206884549299627	9.484618097885866	14	-0.7289988611692496	0.38147078258185824	0.6331380275233806
Si	5.612006827986876	13.647412638949335	8.154461240001483	14	0.19158437026764202	-0.2721221875370245	-0.14846102050652238
Si	6.9733448696671925	14.989710987739018	9.54104899488702	14	0.6477779012163039	-0.09199697657075043	-0.30929934202423764
Si	5.555494004596346	10.824753589996062	10.943268304865214	14	-1.1949998733616163	0.7436811580999552	0.5819678894417936
Si	6.731367086010669	12.325726969726277	12.245176943693268	14	0.6386036832129514	0.307552533069729	0.6210103808387742
Si	8.323458996003202	13.53446891855765	10.91202157995778	14	-0.5241169912963337	-0.11660708247414381	-0.26535426700279874
Si	9.623598024820767	14.898133669696202	12.298805958177816	14	-0.15329598406106085	-0.38801938783227546	0.23865436669518894
Si	8.111597353080745	11.077775050940268	13.765173631036243	14	-0.05945423942310418	0.27797325191408545	0.442480026502588
Si	9.62156625036428	12.46046310969158	15.138980869179358	14	-1.2801507677964084	-1.3358326814937913	0.19589405700527424
Si	5.293575337766068	13.754244650693684	13.558604432867376	14	0.9400925214956433	-0.023222223251577453	-0.24916967323353056
Si	6.8079846453537005	15.02492294989218	14.997756159175594	14	0.18206485281979376	-0.2626744039276084	-0.5196165285439466
Si	10.875318557518003	-0.0162869662076506	-0.1131403437261845	14	0.11226320003575362	-0.44326704184108534	-0.45767063095508687
Si	12.320450910250559	1.2663525858395215	1.2046292440847732	14	-0.1601117271542414	0.7270250236149719	0.8171090978275323
Si	13.68631128862435	2.780974902039528	-0.0009995019503689	14	-1.0268554989661682	0.11025696655444209	-0.32271382692157824
Si	15.08187817578533	4.123535415275209	1.253637610208599	14	-0.5286732470341681	-0.1067098696547658	1.6083220228705328
Si	13.547970387526567	0.1248066615731133	2.8500224630043567	14	0.8439861472917001	0.2082667300268908	-1.4338514438348606
Si	14.99837879973484	1.3258639150811584	4.189060141496935	14	-0.34907845509544067	0.8430019281751475	0.5919013548461858
Si	10.902485348234586	2.641978589826751	2.5925769770339278	14	0.8447423093663556	0.5186672764597478	-0.1619505816792113
Si	12.156598131501559	4.131809980602034	3.933498962482119	14	0.8692207746773575	-0.033869941713906684	0.3879486824359713
Si	10.971352671142792	0.07242292820705801	5.541468206735431	14	-0.5897426548193894	-0.056801887174839416	-0.4925415039701272
Si	12.316223508558835	1.435530579897864	6.950159701474209	14	-0.057888436283134004	0.5071111864878104	-0.20962324519380093
Si	13.539974371923616	2.8950983624382065	5.457706666238942	14	0.038874341109042906	-0.9085291183644414	-0.38979653582956175
Si	14.94617530442541	4.272379279490801	6.716833344535632	14	0.24456842315259358	0.24422183815543763	-0.16209379224554354
Si	13.835515628953187	0.18354788275462983	8.270469007355777	14	-1.812757034638807	-0.3528474383842457	-0.2839942663528083
Si	15.17162034270616	1.4475246033022908	9.507590257466475	14	0.502470084274411	0.5319040979794661	0.973460069229993
Si	10.815577834386117	2.753677029099945	8.284068787991943	14	1.0203207776844798	0.3179721944901612	0.17558361052876448
Si	12.29747875066995	4.147523462084063	9.608572725009484	14	0.25065371522432	-0.2631834827809977	-0.9965025722196922
Si	10.729391272764145	-0.17568294937467782	10.78126706251608	14	1.2208595364506016	1.6797288167059417	0.6769188089148621
Si	12.30319721264829	1.4174248478460996	12.215568746573323	14	-0.754771620898414	-1.1876226008665154	-0.14806995538732787
Si	13.64659337505559	2.6659010955241054	10.78662504838117	14	0.2601799175460007	0.36502213629621094	0.6247315415686245
Si	14.926988144033903	4.017194961867109	12.279176395283686	14	0.061538377395616205	0.6562610061096004	0.16869741914981187
Si	13.545807530847082	-0.11728581902853422	13.647134089225462	14	1.5706848976415453	2.1094623314733636	-1.5044172291200486
Si	14.893349168556732	1.4599118733757153	14.919614768990195	14	0.030483796007271666	-0.38284426704388136	-0.8002164216530953
Si	11.03378057984616	2.9221668414875412	13.550772270043176	14	-0.3780183023579634	-0.8212897150780931	-0.15174894998992774
Si	12.21378275128496	4.219176282231	15.0583325314791	14	0.4703608354837417	-0.18757241752608295	0.5852887290732969
Si	10.779333599726838	5.43663519889182	0.10465276978698632	14	0.45840339597132906	1.1453526009611528	-1.314733162794528
Si	12.241506641449291	6.722338797901599	1.4009248730260753	14	0.7533976222153267	0.6063018586338031	-0.4297383998675302
Si	13.608563145107949	8.247840938610539	0.047697543893833905	14	-0.29063620272634677	-1.0048110990617507	-0.026858794616394895
Si	14.921794010947558	9.5282029370331	1.4255683309499247	14	0.6937114690923453	0.4402632194955563	0.720777751908076
Si	13.742873267848502	5.540255696172688	2.7494496274082203	14	-0.4705156160240147	-1.0652986657130226	-0.5082581565711284
Si	15.16949025658242	6.843540698342234	4.019505286047469	14	-0.4939985493550551	0.5085535765724134	0.8951251749989134
Si	11.11211859336606	8.186805778526535	2.75937910580041	14	-1.2527307008886253	0.4602034268059647	0.7437374653064664
Si	12.379454295878073	9.659072151419927	4.236315282888146	14	-1.0489328090186838	-1.0033419694818178	0.279823419302464
Si	10.907105996595309	5.447662490901629	5.455822359283329	14	0.26683908032518416	0.2558370635497385	0.27070088051604657
Si	12.266871051599637	6.992368177279951	6.71725936176038	14	0.9400408422787083	-0.8797432803105953	0.2775042823036904
Si	13.92996037062411	8.298127356408608	5.499702133432311	14	-1.3590469343188762	-0.4947135737445883	-0.4144498363023336
Si	15.119351306285228	9.736721983269078	6.862105218174496	14	-0.6723887784512932	-0.18096930484287865	0.6124182610799033
Si	13.69738773646778	5.556722900436963	8.205927397806544	14	-0.8546032696007195	0.39010686824170365	-0.2416157658029355
Si	15.163952032660706	6.860188140663133	9.537657242366917	14	-0.6637349521647388	-0.11077350161325984	0.1219218142814219
Si	10.847742134854547	8.202322636674067	8.129653929298884	14	-0.47874006772210426	-0.10960133469780432	-0.6718329054810772
Si	12.251305037618481	9.370986195823434	9.506787378850605	14	0.6747050872342147	1.0554161081939692	0.25429954256829
Si	11.000715089094614	5.465047270726897	10.96191475108685	14	-0.27359800199078943	0.2769859474711486	0.45617347632716465
Si	12.248699778436372	6.78855170579407	12.463789321100183	14	0.015377780919805658	0.5656974207548324	-0.20492969243187065
Si	13.622834722136986	8.024444060064152	10.922770322243714	14	-0.03669070136064115	0.528029956483067	-0.05598916078314061
Si	14.877766769297702	9.604328938039886	12.20160848982391	14	1.4575310667228922	-1.3541500071261223	-1.19180116123282
Si	13.699779987037516	5.532636541960859	13.847116405688617	14	-0.40907956862014033	-0.9289997447023963	-1.25761117300733
Si	15.023661283495812	6.928858840236838	15.044273963062436	14	0.10630029257726621	-0.13063888975885193	1.1115014283160833
Si	10.862374187996833	8.299602031417347	13.82863381224573	14	-0.5161185397558851	-1.5120868362900504	-0.9671143241893355
Si	12.2809951611278	9.500937834649266	15.015370332891113	14	0.15163402158211714	1.7435163970356231	0.6139611813825242
Si	10.892916345955646	10.96329111442834	0.0378008360573943	14	0.72574358472341	-0.2678670082321794	-0.32840214033187387
Si	12.395413556528226	12.285370030320399	1.339348998772201	14	-0.6744991416980708	-0.2320067738899461	0.8041363288241932
Si	13.661979150980121	13.502222691699846	-0.24594302090224904	14	-0.43418204119234205	0.3397679685101204	1.2191734055816486
Si	14.828496238727878	15.01592743233886	1.46159955699683	14	0.67816528077407	-0.3423593855622977	-0.601438355810211
Si	13.653852053154171	10.978414725906873	2.947760645528135	14	0.6523732377550044	0.44675757442371833	-1.8155839649383096
Si	15.052007814219388	12.3586777635327	4.20613360104258	14	-0.1904764809851902	0.27384251410673555	-0.2291908993433199
Si	10.885116953687193	13.701189120934757	2.762262914706392	14	0.43988578123455857	0.35024856512664004	-1.0748063560763979
Si	12.213258422392965	15.174946554114763	4.000088731765713	14	-0.7374274586297591	-1.2669085469555177	1.3291974299940852
Si	10.701044742040567	10.954508605487396	5.436078099444074	14	0.5385180093050151	-0.6842536581721806	0.23584543413292716
Si	12.205885047349257	12.223318983008152	6.759156517286499	14	-1.0110277746153367	0.18443309793018214	0.40890961855847857
Si	13.376088822618867	13.618738402668262	5.40145600729441	14	1.731795242102132	1.1601541971787135	0.08915487674985875
Si	14.867788135071889	15.066361317637801	6.957811626241787	14	-0.7116660117640033	-0.9725879503053988	-1.8717430757831122
Si	13.584902803856593	11.047626139650452	8.199602680546834	14	0.20198963349828128	-1.266691545666497	0.407112158829163
Si	14.971277550129757	12.305786086552523	9.638426701297552	14	-0.22895744298025045	0.04914487842090643	0.20385368485538868
Si	10.957113864669504	13.696240767016539	8.171174223433882	14	1.001486402772267	0.0958009268919095	0.0740151801826988
Si	12.402311758513559	15.16667198878794	9.524172158675874	14	-0.6129247688279725	-0.6884574153706227	-0.21772119851013932
Si	10.894145241796263	10.756082890422357	10.909252467996922	14	0.25988218354992754	0.015517134828157685	0.17675166367570777
Si	12.107753618156481	12.315453400498715	12.178554403853925	14	0.36370958703027534	0.5070865038767368	-0.024260178469321228
Si	13.611922127072301	13.751606620955824	11.000911712429113	14	-0.5661540490596908	-0.8883533978067074	-1.064544303412091
Si	15.00650589756079	15.022973101825064	12.233281231956092	14	-0.23439507362183162	1.3018143870029122	0.14677977473767756
Si	13.550788655321051	10.93152006062891	13.391196048819525	14	-1.6480702826778943	-0.02460033570317682	0.2979687379888771
Si	15.012863385376251	11.943540363294234	14.885811940734278	14	0.23660031065492265	1.2900122422518363	-0.11554573019798668
Si	10.988950459580435	13.608923621221196	13.802073276810518	14	-0.1275386509638174	0.9368305601759713	-1.3011255878876444
Si	12.353106769055234	15.053564415617505	14.982042677693565	14	-1.1692605380016137	-1.144627806371403	1.226022315933459
H	0.05025200871453082	14.489701125164146	14.845884295608721	1	28.36853660463297	13.680494796200025	-26.854768008353005
H	-1.2622431581484965	1.0742630577287064	0.6047822448903466	1	-0.0015416347499607882	-0.008854372501525954	-0.22297062424228567
H	14.471380745972219	10.39454664969605	14.516515632406419	1	0.6487163546581579	-0.6723694951613921	0.9720696154728571
H	9.589688692258662	15.104866720643816	4.137872533415747	1	-0.02783452908539109	0.1657285638366369	-0.29977493947628114
H	9.522984226029944	15.02492294989218	14.997756159175594	1	0.061901674577353134	0.05867468029003529	0.09204351357704511
H	6.901569159936193	14.944684244138793	6.8229280187756105	1	-0.060091616431968885	-0.20005384830274178	0.03680151599993953
H	17.884489837258666	6.843540698342234	4.019505286047469	1	0.048366347729965585	0.02099101805475295	0.12935976486207826
