224
config_type=interstitial dft_energy=-23337.459882742 dft_virial="-69.10571079643852 7.929904959294601 -3.0915193874127134 7.929904959294601 -70.8131443356601 -8.012713514314584 -3.0915193874127134 -8.012713514314584 -73.49850747702241" pbc="T T T" Lattice="16.254729908999998 0.0 0.0 0.0 16.254729908999998 0.0 0.0 0.0 16.254729908999998" Properties=species:S:1:pos:R:3:Z:I:1:dft_force:R:3
Si	-0.216545511847698	-2.6454572926897497	-0.12194298377731799	14	-0.4701070673886431	0.46603957877216884	-1.2435893930333706
Si	0.25308614468312995	0.070903131863058	-0.07732375017711299	14	-2.245651723397351	0.007679891591282312	0.1349215798906226
Si	1.3565222298256858	1.3763530003146658	1.3955498363371948	14	0.20691278596530085	0.7490090025443661	0.29065702867944
Si	2.7446599093243766	2.7178558597044358	0.08831194759559699	14	-0.31407208483002846	0.5836835880219283	0.052109362855037165
Si	4.088731016039769	4.159113996545739	1.4178838352321608	14	-0.4080339000864361	-0.3849353470007578	-0.8606391964502992
Si	2.692319679017397	0.046846131597738	2.677397836960935	14	0.07067814258767861	-0.7403839726373973	0.44894532794063235
Si	3.999720115058085	1.396460101212099	4.079221999043003	14	-0.6002723595475238	0.47799367584766533	-0.6878400929832552
Si	0.011979735942932999	2.729412972669735	2.8208458284078595	14	-0.8386832425688947	0.27580066791856034	-0.37199163148753633
Si	1.5543260380883068	4.108122908821206	3.9248508290972306	14	-0.3098598429840299	-0.8419943120001814	1.0207961750581753
Si	-0.209897327314917	-0.083159198214444	5.457704368975748	14	1.4913968946682867	0.12234707510137442	-0.0013115208238075353
Si	1.1752982460702448	1.406895637813677	6.770257554397589	14	0.09301899093550929	-0.47792477022508534	-0.059652471643287595
Si	2.7064287845784087	2.6661658185938157	5.5305580684278866	14	-0.25573653333172075	0.9480279809557481	-0.6934990957929011
Si	4.079368291612185	4.169484514227681	6.7725494713147585	14	0.21674752092539923	-1.1592879917963554	-0.20024539564909283
Si	2.669449274035434	0.147072796216632	8.130957249809889	14	-0.05761487067707024	-1.3583375663610473	-0.050720965982157196
Si	4.045249613533193	1.4585694241943878	9.46707979359978	14	0.09695638162278407	0.3814964936350597	0.19677260369316882
Si	-0.12119526620150399	2.65455994143879	8.256216198488643	14	0.3527201686708984	0.8736448756017362	-0.41492240546017684
Si	1.302621545447442	4.114933640653077	9.50170236830595	14	0.5282628986250726	-0.5496231274037987	-0.46312420244965297
Si	-0.21080759218982098	0.027600531385481998	10.845610927722252	14	1.7331594705850029	0.2327817050334387	0.3438956209910862
Si	1.2933888588591298	1.4743852763958447	12.14181185485564	14	-0.6659445600768741	-0.5168361352507385	0.14577781499441583
Si	2.730323237544639	2.8073218931235715	10.927664804302882	14	0.11962067501988938	0.20131548968333848	-0.8032922349475885
Si	4.174312169010653	4.089072365367858	12.274547979292532	14	0.3451770598826479	-1.050139428745429	-0.4602306805223583
Si	2.6546899792780616	0.131143160905812	13.493977817065712	14	0.049800767388076206	-0.09752562434066483	-0.7104203112363917
Si	3.9389274251984245	1.4082122709363059	14.901312332586931	14	1.0250822076268622	-0.2978610086759628	0.12989172655281692
Si	-0.041335778158586994	2.7931802781027417	13.576828175411885	14	-0.35702497030842234	-1.1422919571880485	0.3110034706304318
Si	1.3602608177047557	4.017340242279441	14.943769687109238	14	0.8122419954564919	0.43420415269809537	-0.01913879378211827
Si	0.048650406617637	5.392522902040659	0.031908034811366996	14	-0.7696722046708002	-0.9561200207298504	-0.776372762245638
Si	1.1764360771638749	6.846703549159616	1.253743572611079	14	1.2679655283526305	0.5642154356482991	1.0241031307209496
Si	2.7592729115125674	7.999488994305896	0.01755510830172	14	0.28432825293389546	0.014162419434971662	-0.7203859154572855
Si	4.096614560045633	9.414544506533892	1.331717511984552	14	-1.5482417193019726	1.3757763453054836	-0.857680625558405
Si	2.6686365375399834	5.528509972459353	2.5251560366332404	14	0.004628503797330571	0.8663845883987021	0.6865997917768156
Si	3.988114237903059	6.839681505838929	4.040259411451131	14	0.8177477603890569	-0.6577589320691186	-0.3409391069834479
Si	-0.018010240739171998	8.291586490770626	2.6412148081835007	14	1.0087346057802966	-0.5509115082797249	1.0676054614062591
Si	1.3779134543859297	9.616460761463488	4.078929413904642	14	0.02525313934396242	-0.46408656717098434	-0.5699536285018056
Si	0.190602962912934	5.386427378324783	5.321749808016873	14	-1.4075330955567609	-0.5084530463543956	-0.12268106168246164
Si	1.4461995747336387	6.680580209489636	6.7798478450439	14	-0.7459321608077448	1.7362311701109836	-1.5886219567970263
Si	2.702755215618975	8.17235804688811	5.357900327334488	14	-0.396797398505793	0.17562500532441888	1.0325360990605033
Si	4.005279232686962	9.43746367570558	6.922174260127103	14	-0.3294362388916374	-0.03436462237750318	-0.768384338015938
Si	2.6968710033919168	5.4413358559573854	8.022050559419588	14	0.8283687393560567	-1.1032173269745662	2.512960030443462
Si	4.216460683664691	6.5068984204119715	9.555781854713192	14	-1.4680674563248592	1.137593776436542	-0.5434640446093839
Si	0.022886659711871996	8.009323105900842	8.008737935624117	14	-0.4008003523787315	0.37613342504776287	1.9735765870876854
Si	1.4279780225056498	9.258791684545852	9.60974755801107	14	-1.2287399742568554	1.0286269905317502	-1.8269374518110195
Si	-0.038751276103055995	5.388052851315683	10.886345280874206	14	0.39345290470534433	0.3434137958540904	-0.47006721525618084
Si	1.3372766296134297	6.695745872494734	12.186333560076388	14	0.8713735611619174	-0.9958788220690242	0.6925549859193427
Si	2.6964321256843737	7.921189960334243	10.830575302556426	14	1.9134512891760225	-0.3300563894948571	0.4853362384209442
Si	4.123353590745938	9.325273529873662	12.183667784371313	14	0.3939198174314832	-0.10850578672088924	-0.3802888454661862
Si	2.8636932964479835	5.345579242063467	13.588856675544545	14	-1.6935703621969584	0.5283806552487353	0.14647072787819576
Si	4.249864153627686	6.622241983846235	14.910561273905152	14	-1.4127884348311435	1.111046342674417	0.11570488161730386
Si	-0.010988197418483997	7.906349391927326	13.554559195436553	14	-0.3307436459469327	0.36860651422302937	0.2980597551172103
Si	1.4534654390029618	9.261733790659383	14.761749221588259	14	-0.6188000015950429	0.19813914617082753	1.1250210714210178
Si	0.0021293696180789998	10.722643895960665	-0.20168868871087198	14	0.4790370303865814	-0.3549621725100675	0.28104675121379047
Si	1.4238005569190368	12.24725628777532	1.235018123755911	14	0.8473008162704351	-0.7127127087398356	0.6795259097094923
Si	2.8142789175246237	13.53755674795174	-0.21207546112272296	14	-0.31833266345604594	-0.20350144342652837	0.5688125719607239
Si	3.9799055992990136	14.827450839880436	1.3106513820224879	14	-0.16592885294107643	0.5336383085179061	0.5939883210345499
Si	2.8404815421379315	10.87912818079461	2.7567209189168547	14	-0.10162936554215318	0.3493905872813066	-0.22193806834571422
Si	4.166607427033788	12.25182386687975	4.272376954551651	14	-0.6427495905416902	0.4056607698759394	-1.7409573759104797
Si	0.05708661144040799	13.594968453990328	2.5744891419070557	14	-0.5494943150272593	-0.561712207508603	1.6416054954609138
Si	1.287943524339615	14.934228160652657	4.039219108736955	14	0.45907342601775963	0.015014997959132767	0.3763221441782617
Si	0.099739022721624	10.936198537505108	5.470626879253404	14	-0.4064251594876195	0.5110619469227499	-0.23166893065087862
Si	1.4917940921283839	12.309788233735244	6.828677053690535	14	-0.9287099811328158	-1.0705444918977203	0.7316643260546472
Si	2.7230086090855887	13.616002074492574	5.459638681834919	14	-0.14592462510819632	0.49913664622683906	-0.8829057398543777
Si	4.111243816963733	14.966965186689382	6.672696665483771	14	-0.6736815302062636	0.10226982787740208	1.8340810108325192
Si	2.6759349112691244	10.787630306136847	8.288774422496369	14	0.1448169929362765	0.25673077975902203	-0.1737624966305036
Si	4.1699884108548595	12.126418625631816	9.550173972894587	14	-0.14339388614157456	-0.3630560120578937	-0.11321990832538073
Si	-0.11483966680708499	13.522976255223368	8.054462490858134	14	0.524676978035062	0.26809455105301244	0.8526170907409051
Si	1.1764198224339657	14.972735615807078	9.47226505244075	14	0.6989061302811725	-0.3966554734921208	-0.39083731926315773
Si	0.045643281584472	10.726301210190192	10.821586436916748	14	-0.3808141222830924	-0.7748483539013222	0.2701730325938202
Si	1.513559175476535	12.020080182567137	12.192364064872628	14	0.3122211461100539	-0.05388265419434329	-0.8447402524820995
Si	2.7277712449489258	13.544107404105068	10.699692217329158	14	-0.22199900354180171	0.8706701067463251	0.3825439619424881
Si	4.036537078301969	15.037250638815898	12.079605003493896	14	-0.22383862939836768	-0.535372261945814	0.11767460540306929
Si	2.822227480450125	10.627228631394836	13.575722853778073	14	-0.062073681523271036	0.7802813565533272	-0.5617191494929673
Si	4.141396340944929	12.094087967842814	14.832717372370952	14	-0.5662638352568612	-0.07788237969473352	-0.4371352127630642
Si	0.04231106195312699	13.363176005487988	13.287055105324141	14	-1.09737834679251	0.4975263629648302	1.0811742126228086
Si	1.3687457867172539	14.863536340278415	14.74580333154753	14	-0.6786648465377747	1.7888277574241886	1.0628759131698469
Si	5.284250146116809	-0.010760631199758	0.009655309565946	14	0.31837611513595643	0.299651783531446	-0.5073299875505549
Si	6.53342613962346	1.54176113186865	1.3184861618386259	14	0.08115693943047411	-0.6498404419041266	-0.20357471992815254
Si	8.037541317022866	2.675739854510217	-0.036280557156887994	14	0.4292642880464948	0.44865582148158367	0.4312011016841624
Si	9.44611119201717	4.056400358250768	1.3487362141992747	14	-1.089409205852711	0.7830887464523968	-0.3524502026122828
Si	8.012704089721913	0.292146260654457	2.5960591684962986	14	-0.09654191944517619	-1.3491139831355483	0.5532082766622133
Si	9.314870502731903	1.544719492712088	4.069387887448058	14	1.1757813753145734	-0.045954393829134674	-0.4088006036929042
Si	5.313768735631553	2.855289601085031	2.804314768090407	14	0.3975813285179061	-0.4502316519323024	0.3395846487007939
Si	6.769834931419956	4.132277437465979	4.098061231007534	14	0.10599201704938045	0.2920279420361429	-0.1688527139111488
Si	5.2713601452989725	0.19521930620708997	5.444879387077547	14	2.0460213361408375	-0.5417941117039479	-0.05682117046474053
Si	6.717657248412065	1.4935983671482829	6.83574786120095	14	-0.13317425671504998	0.13547950974509476	-0.5496382969251875
Si	8.125820755158644	2.9217714464128406	5.523389732538018	14	-0.1777471956556691	-0.5644265233950833	-0.11348216106803584
Si	9.62993593255805	4.256642375999739	6.698752997527898	14	-1.1972243936846083	-0.3575682448625696	1.6177649213798408
Si	8.009778238338292	-0.03285080914608899	7.973627719020676	14	0.6106354566509127	-0.6625715270073719	1.150407136910032
Si	9.46072419420536	1.2263055885246867	9.455815265772841	14	-0.5122261434117129	0.19681656959414337	-0.11414036402999374
Si	5.442311139751926	2.8784363364754464	8.207126914163462	14	-0.09238084259504854	0.037347875880471	0.1414236481347451
Si	6.92937510547679	4.1043355567524085	9.59789785990741	14	-0.21519328775936972	-0.6265261730820879	-0.5508737130315188
Si	5.484053286158238	0.058565791862126994	10.689402973296762	14	-0.7139262704509455	-0.6453914012581423	0.18920532651490898
Si	6.759155573869743	1.2577747456285109	12.173719889667005	14	0.023537954984891633	0.413328063051153	0.2058115815566814
Si	8.125495660560464	2.6304216675239247	10.939433228757	14	0.4553651208145101	-0.4122839371806408	-1.0933229423710402
Si	9.619646688525654	3.941186832655776	12.067137625653691	14	-0.36663910443205205	0.18049827834822754	0.5161961871365535
Si	8.10946849687019	-0.028153192202387996	13.509956216566259	14	-0.2700007685373703	-1.1550790923872731	0.2747544851637921
Si	9.388455665029944	1.2736881262094217	14.933935575514294	14	0.02861743065537618	-0.2567577763648836	0.20600827111367273
Si	5.489953753115205	2.6145570511327407	13.570131226689377	14	-0.40218360704097117	0.4514084468373342	0.20452345779128725
Si	6.868728708186311	4.091575593773843	14.813634319457785	14	-0.6858199755332148	-0.34136385358233634	0.44991951974643646
Si	5.45555874462776	5.375162850497847	0.04050678693322799	14	1.7022010485356316	-0.04664602116025451	0.23299639232767108
Si	6.729783276924179	6.9998068501724875	1.32232227809715	14	0.13764849419317166	-1.7425362916875828	0.7492283178281747
Si	8.28763659140274	8.107306617792293	0.09031127937440399	14	-0.9411243060606186	0.20191172900708082	-1.255938668996574
Si	9.37697982571419	9.592192449709351	1.4320417049828997	14	0.2956449730005272	-0.2362195299570087	0.055015226087868525
Si	8.138840793815753	5.53276871169551	2.796219912595725	14	-0.3374835414331689	-0.012952971492374009	-0.9468861530830706
Si	9.474361912599012	6.892363085473997	4.172377856151482	14	-0.22190927196612853	-0.2317607191108079	-0.15123112937844996
Si	5.3359076777676115	8.266554206710765	2.7034216595452434	14	0.41091508070819405	-1.9691368024208535	0.46562074571551676
Si	6.646770371278917	9.541754022801726	3.9647561910238256	14	0.8588818459639781	-0.07561389347076689	1.9115011057906899
Si	5.45425836623504	5.458842200069379	5.446976247235808	14	-0.2705975220821767	1.0538937567339093	-0.30354238010189405
Si	6.805514063570211	6.87997698128334	6.857512944549101	14	-0.15335897614140448	-1.0960300591626244	0.05021008735504377
Si	8.076373866775466	8.221382312293656	5.49946277011197	14	-0.38503973387675583	0.18243869153334327	-1.1236588998224035
Si	9.47618244234882	9.59484197068452	6.684611382507069	14	0.16296051184896546	-0.7805495228382187	0.20900875102228555
Si	8.212474720303524	5.519017210192496	8.28193118120468	14	0.19932391150235176	-0.036874278280499724	-1.2748663750319082
Si	9.56151977437107	6.883943135381135	9.580814138773052	14	1.212481075543835	-0.653388567245931	-1.4866694033161305
Si	5.339646265646682	8.035249400105696	8.19124604304237	14	0.35554375653348497	0.44187864496820534	0.4480379848731521
Si	6.804896383833668	9.484569882981862	9.40251600640123	14	0.18631154747708234	-0.9990345967389739	0.15074159092549375
Si	5.587059509591571	5.359867149653477	10.94297675987716	14	0.1994756067162405	0.32146889772556253	0.6240563693115536
Si	6.914241951931512	6.849954495141416	12.236300599816655	14	0.15651346525869414	-1.0086163349355697	0.25252547989738783
Si	8.218619008209124	8.111971725276176	10.79507497243517	14	-1.2352651824488592	1.5389991098971045	0.539296797106488
Si	9.521289317846295	9.626928807524884	12.011936562882727	14	-0.33503250673147167	-0.8812823439552362	1.2178855389267864
Si	8.326761726293702	5.263249035074381	13.481868043283507	14	-1.0769365168341407	0.8092844530067255	-0.753817226603575
Si	9.45633541712993	6.664179187011455	14.86945306196529	14	0.45487635369314994	0.806130735221032	0.4823059336906177
Si	5.505346982339027	8.067433765325516	13.634906325376742	14	0.34497882766246457	0.5080334419661474	-0.2455541849323383
Si	6.848003927552336	9.510203592048356	14.96132479541096	14	0.909183721778951	-0.15363254174746824	-0.7619352345414105
Si	5.377519786334652	10.788784391960387	-0.051218653943258995	14	0.9390363114301264	0.11834026457045563	1.0213587329022236
Si	6.768680845596416	12.149110228584778	1.374142357047042	14	-1.625476180456029	1.2907527205840388	-0.7595664752099581
Si	7.99422246181538	13.564620873250226	-0.058858377000488994	14	-0.12452351575487974	-0.16749851273902683	-0.10666076154315096
Si	9.265895001516085	14.93091219575122	1.290056639227785	14	1.1509622385486522	0.6504299963540365	0.6875801542353882
Si	7.992515715174934	10.88740183831829	2.71584027319572	14	0.8179598765779693	-0.07766512129518101	0.4331350871059777
Si	9.397379511749987	12.291908030835344	3.9395288502050576	14	0.2132551885690421	-0.64281592505895	0.6254938742960484
Si	5.3975456135825395	13.722145460798345	2.7667175778108897	14	0.06155097581168495	-1.803794675713835	-0.3598285035495118
Si	6.698184081981084	15.04599568350694	4.064885327263266	14	0.5326312065640042	1.1676613104924816	0.1194332414420506
Si	5.33252669394654	10.755657252405845	5.480152150980078	14	0.8448508100108658	-0.08603715443864718	0.8302111934284748
Si	6.737666820930045	12.135391236541583	6.8408518463923755	14	-0.14439327477951613	0.6623103027068449	-0.8875861799791753
Si	8.03292497372871	13.57118778413346	5.329275747964739	14	-1.1737378608061197	-1.1316411533993351	-0.3991533023106446
Si	9.348290227424807	14.799395176057502	6.590529005793776	14	1.5840705861593	1.7830931641181307	1.1827326156581257
Si	8.149845245964146	10.812353750328437	8.061224458500279	14	-0.040218772080948345	0.6182351297562063	0.9106675066592086
Si	9.646808342203592	12.078824776458262	9.379434289930451	14	-0.47423292009588475	0.6962913161705818	-0.35458396291747374
Si	5.398325840618171	13.56535233609613	8.17871364628253	14	-0.2006356894366913	-0.19547625239075017	-0.44587799929369565
Si	6.797565500644709	14.750224618082775	9.561536029100978	14	0.7237517494318915	0.8596390364807616	-0.7110201501075821
Si	5.6371403324411995	10.772090784343844	10.899674159399584	14	-1.173554798107325	0.13243274994071924	-0.4416906971693025
Si	6.860259993903722	12.255302379080275	12.132822989215962	14	-0.20288772058660903	0.010932082710737617	0.718985691499933
Si	8.330825408770952	13.42395244061774	10.796326586638163	14	-1.2255847138079698	-0.41964886837020504	-1.2921128352983973
Si	9.431238114150435	14.742080998398368	12.196297709510604	14	1.3882400354554336	1.0671192653902193	1.0795508167236672
Si	8.266342895221948	10.972560368311541	13.479299795957886	14	-1.2055576031377402	-1.1086063637255965	0.3158433192850785
Si	9.463438734100164	12.304505446514819	14.86719365450794	14	0.4720719060743003	-0.6604146267542996	1.001620871580511
Si	5.297253930044009	13.501292445524761	13.436874950895396	14	0.5609982115611979	0.5884630157015517	-0.6153912301615906
Si	6.611270041157661	14.860301649026523	14.812398959984701	14	0.260653772256504	0.6085808863895823	0.2890225770274218
Si	10.837077194520026	-0.093399678057114	-0.06602671289035798	14	-0.7528893146935336	-0.062049513133261645	0.5518792723222288
Si	12.136334010876306	1.367656719813351	1.2716725397007058	14	-0.3372583126071239	-0.5080550392508366	0.8117102908762852
Si	13.475398660779724	2.6318520837559167	-0.039580267328415	14	0.678111287562347	1.0499221703458768	0.2727248546240672
Si	14.878539455984424	4.07766154497174	1.302475252878261	14	-0.24156408658600054	-0.5551476614052009	0.7617182332523901
Si	13.58581704105156	0.09357848008611298	2.6830382282393574	14	-1.549914480423261	0.08573042157395351	0.014180674282744716
Si	14.835253110236755	1.2961846724034778	4.12462145967884	14	1.0194332321279647	0.7577394477694609	-0.6430763780278811
Si	10.832282049196872	2.8410829671445645	2.6235784262322355	14	0.558292637432806	-0.7042576288945287	1.569445881987766
Si	12.236300599816655	4.209438640344002	4.1515392924081445	14	0.5745183688871967	-1.2163963547253565	-1.012319240817647
Si	10.773066068138384	0.150177449629251	5.352942634712243	14	-0.6314989478817863	-0.7328971710556581	-0.2709610763744456
Si	12.053321105231042	1.45447323225732	6.7764180970331	14	0.8651098343809728	-0.225094357236728	-0.48999533837158465
Si	13.691391511810517	2.702316337911432	5.454128328395768	14	-2.316898337371314	0.40621664284615544	-0.40410653670990987
Si	14.892014627078984	4.057489425154671	6.748037338611986	14	1.3982362358296374	0.8402104791290627	0.7127597599671944
Si	13.327106759819918	0.049349360003723995	8.13014451331444	14	0.3446448410813773	-0.5032110768276776	0.7457408705719258
Si	14.762919562141706	1.3196890118518918	9.538373038980653	14	-1.3341300955507893	0.7635074654446811	-0.17402860603113893
Si	10.74338493132455	2.7274949145404728	8.120602986857854	14	-0.43153380271258956	0.16736224415705897	0.1998345330189332
Si	12.157010027320553	4.029336232952282	9.39653426579472	14	0.429996024620609	0.32942672580195287	0.2061100868843506
Si	10.815295856441967	-0.146422607020272	10.844521860818348	14	0.08090522821963163	0.15248145789563797	0.023426626124529223
Si	12.113106001836345	1.304051961679434	12.238868847142276	14	-0.04459890710435261	-0.2323510448923139	-0.38492994767958544
Si	13.415126122277153	2.8029331160481417	10.956305638402542	14	0.6740247727665035	-0.649723713722592	-0.5150890691856979
Si	14.92099681050673	4.128262519178457	12.225865063215076	14	-1.2870796395236754	-0.3633555458276909	0.40745025917876243
Si	13.440564774584738	-0.030282561820467	13.622650259025354	14	-0.07414990610147455	-0.711642871816122	-0.009425157882598827
Si	14.7932508881519	1.2674300551944568	14.939917316120807	14	1.5818648349051452	0.41530267193702675	-0.3077571930532128
Si	10.692800211847743	2.561176518111585	13.568879612486382	14	0.8336333346095919	0.6311847588116641	0.060920026566120604
Si	12.115170352534786	3.9606274896269396	14.87582491608962	14	-0.06609026225440637	0.05017100655417752	-0.24475585673043235
Si	10.819863435546395	5.356713732051132	-0.014791804217189999	14	0.3885410651017334	0.5603724045262738	0.39944795098033364
Si	12.04685172272726	6.880042000202975	1.4473536605571777	14	0.7694842568718974	-0.40666684338771336	-0.7306790784959664
Si	13.593359235729338	8.1549979953453	0.025519925957129996	14	-0.9853146645295997	-0.4319955732280882	-0.060190089765730564
Si	14.929302977490229	9.542583014027082	1.3572211832117729	14	-0.7122763921670066	0.7368800703070996	-0.865808146585925
Si	13.606834406823898	5.542765370589546	2.7251542334335768	14	-0.43732161789877494	-0.6650084206298083	-0.2758487475880471
Si	15.039445027353613	6.8236055779589275	3.9975257265203696	14	0.07471477794031109	0.1122228336822273	0.5339445271615357
Si	10.691142229397023	8.256183689028823	2.7551767195754997	14	1.349525874207836	0.3407604151636976	0.7943039078588827
Si	12.290575142982805	9.632146575825674	4.2284241648777146	14	-0.08617599412593517	-1.4973464323791095	-1.8922502118166133
Si	10.947089206544138	5.581484137232784	5.435305351161146	14	0.1756897971784866	0.6367026079392339	-0.13855480881852386
Si	12.343858147624507	6.929602671695516	6.748443706859711	14	-0.7197554804327853	-0.7363316535423119	0.9718852672214023
Si	13.663319593257674	8.153096191945947	5.388199143884864	14	0.3803415531252492	0.33793657019057893	-0.5015038628950994
Si	15.003587093174358	9.48705685665794	6.732497816818983	14	0.597931625264061	-0.1441395066844175	-0.2437446410080181
Si	13.592855339102158	5.44614725601045	8.149487641906147	14	-0.303246702990077	-0.10502965232804903	-0.2795048593532977
Si	14.833286287917767	6.741909305436294	9.638680977249091	14	0.08322050856042497	0.8036241646444195	-1.0440050285620877
Si	10.855233727828379	8.271560663522738	8.034566701449517	14	-0.2729562541028805	-0.9095935559669825	0.1500149965620199
Si	12.252376527696656	9.530408221325242	9.328573240045191	14	0.2707484459644694	0.31709750446024676	0.13735513107614275
Si	10.880152228778876	5.380331854608908	10.788345514252844	14	0.15557398337471204	0.30657628437966883	0.014177331845828523
Si	12.096997564496526	6.702702896895786	12.28043219151959	14	-0.5569546342242009	0.8237682606067157	-0.20931908343442743
Si	13.287201397893323	8.125837009888553	10.846082314889612	14	1.5001936744106414	-0.4673328447482033	-0.017233347629356528
Si	14.937722927583092	9.237384205255701	12.170436434225385	14	-0.6987374657721707	1.0612520030496413	-0.24100821361578453
Si	13.453649832161481	5.419196913821327	13.589766940419448	14	0.46275833416259593	-0.6978715175003448	0.02889305314569605
Si	14.87176123361237	6.617983244610078	14.967566611696014	14	-0.2678934906169769	0.866730402064262	0.06539992047594662
Si	10.688378925312493	8.192936534952905	13.561581238757242	14	-0.34191304167872	-1.0231309957994017	-1.0358656804500952
Si	12.014179715610169	9.383416698758156	14.910902623233241	14	1.1837242909801067	0.962212511896473	1.0253624581067584
Si	10.723651689215023	10.850568620344497	0.088523259084414	14	0.7215565397095489	0.6564314703923262	-0.7605015862148959
Si	12.164844807136692	12.225848808485166	1.4509947200567939	14	-0.12840202813032311	-0.701466179848444	-0.4061379670233589
Si	13.502690352296936	13.450415140909591	-0.022902914441781	14	0.5232834389515417	0.30592502340207534	0.4075037381694216
Si	14.944468640495327	15.05022191328328	1.426775172492384	14	0.015768588928468167	-0.2604845935264382	-0.6349946226750597
Si	13.611239438629237	10.886686630202293	2.7507879425000694	14	-0.5898185024263337	0.000695998210164085	-0.13904486149254408
Si	14.852531888130022	12.263787348092773	4.0993778641301635	14	1.1088318496621734	0.49088751191767593	0.05684302485996179
Si	10.812808882765887	13.618050170461109	2.7120529211269226	14	-0.4870797049385366	0.8489458094542658	-0.5291213906914699
Si	12.198882211566136	14.991834923450151	4.047313964231637	14	-0.7446216684260655	0.532749991629795	-0.3666514457375888
Si	10.752357542234318	10.832249539737054	5.285599288699256	14	-0.3132873834863193	1.5407621168151302	0.33994023256657036
Si	12.123476519518286	12.13771566291857	6.692901294760658	14	0.5459364194852384	0.20003276523911662	-0.5780775499818774
Si	13.448903451028055	13.666668067618927	5.410370595480741	14	0.19619307655400745	-1.0892983912134124	0.06566757253977402
Si	14.735270266566497	14.926750984894516	6.853172931663399	14	-0.19329646930032862	-0.11679143072559843	0.17155983070273273
Si	13.672373477816986	10.852194093335397	7.96335472971819	14	-0.5570209687414609	0.1305599568255234	1.3035236578197467
Si	14.917355751007115	12.127784022944171	9.547573216109146	14	0.44106977523448676	-0.12287389458147274	-0.9386640153797691
Si	10.886621611282658	13.562605286741508	7.966768222999079	14	-0.7874544832860083	-0.04283332908100692	0.7421197258390293
Si	12.206814519761728	14.689318145113754	9.565177088600594	14	-0.5679324826096372	1.3713851545292028	-1.1109036463291488
Si	10.975876333212977	10.828852301186073	10.768157139705867	14	-0.13941818598502959	-0.25373621339264557	-1.0507487807063045
Si	12.253563122980013	12.067413956062145	12.109221121388092	14	0.5203665199658337	0.6390687961653663	0.1298269346987492
Si	13.61832650086956	13.489150162282739	10.869407852309026	14	0.2412830647745083	-0.022890036444214317	0.486374964970284
Si	14.857847184810264	14.968086763053103	12.25505855813164	14	-0.20788543510791285	-0.9372902738072139	0.19645327241240643
Si	13.413988291183522	10.641321482225939	13.434209175190318	14	0.654307737397884	-0.8558677391971684	0.4632057064883016
Si	14.812935366071699	12.00099712965397	14.746534794393433	14	-0.025618236299423443	-0.15585757629152439	-0.32022602541380296
Si	10.958727593158981	13.339915486988211	13.481900552743324	14	-1.131308966591972	0.9746512623248177	-0.3048217621091998
Si	12.10114252062332	14.705150252045119	14.889495143943089	14	0.7255561511455714	1.040528637058716	-0.20215572690196287
H	2.0366510132050726	13.988232138462692	13.888754816892604	1	1.6025496343162684	-2.342690123279848	-2.009081494674674
H	2.420244758854573	13.315851984830926	2.2420002670914516	1	-0.05989621242763764	-0.1165253213249631	-0.225598293879477
H	-1.261090710529947	-1.778148792516264	-0.9860330474288216	1	0.14474860153476057	0.3187232143541764	-0.5077729889972165
H	6.884989939987275	12.126418625631816	9.550173972894587	1	-0.02995337697972512	-0.0675439652024181	0.02046342724305856
H	14.967378056829071	9.530408221325242	9.328573240045191	1	0.09101738544377401	0.12227251304709011	-0.022780250247043995
H	14.95130212894907	4.209438640344002	4.1515392924081445	1	0.10626018333427191	-0.030930139890849376	0.026235044465726966
H	3.891421351566381	14.972735615807078	9.47226505244075	1	-0.20169138528114414	-0.12819068327300695	0.03949886259130688
