222
config_type=interstitial dft_energy=-23301.93649317561 dft_virial="-51.7109308592079 -13.293903734816817 -3.4362206891856135 -13.293903734816816 -63.71176200018483 -18.542022441296584 -3.436220689185614 -18.542022441296584 -61.59255969361391" pbc="T T T" Lattice="16.3199774331 0.0 0.0 0.0 16.3199774331 0.0 0.0 0.0 16.3199774331" Properties=species:S:1:pos:R:3:Z:I:1:dft_force:R:3
Si	-4.6833112840218405	-2.106239967538453	2.079132485022074	14	2.084905961671161	2.605311819548393	1.02414015463756
Si	0.037144268637735595	0.0506082500200431	0.011032304744775599	14	-0.25613171221942754	-0.8124811082512656	-0.9698692635398742
Si	1.4359295344287366	1.199861060858945	1.379854091968605	14	0.1399689167446053	1.0091940623010072	0.2987279853899168
Si	2.7191530400159567	2.602661041098489	-0.0508693696589727	14	-0.04803441803313447	0.5530470683586399	1.3589530889746908
Si	4.136510440125825	4.001005667498796	1.2953002888877139	14	0.04814497556190084	-0.42938872954399004	-0.190681140968674
Si	2.711580570486998	-0.1012001800626531	2.85483733239475	14	0.33894367214448096	0.029417044409942233	-0.7337160681001254
Si	4.032176824396017	1.4146972437882734	4.062662542241048	14	0.30148009652460334	-0.7460710004950328	0.5094745464980903
Si	0.0671730271146396	2.655097128591039	2.651457773623458	14	-0.6663402531856449	-0.11994206318490788	-0.4422414279288783
Si	1.402391980803716	4.001511586799222	3.9719724276453108	14	-0.32568396778741326	0.8426594569465036	-0.1933100961585254
Si	-0.0105100654669164	0.1088868894336432	5.5371072234119	14	0.0522697998270144	-1.06175208303441	-1.2091543223700953
Si	1.2939620507381997	1.468961168753331	6.845855173704488	14	0.892738675040752	-0.8364067859184356	0.3291583024065294
Si	2.575945238040504	2.700466665855057	5.398028375727022	14	1.475844535697243	0.20043257211639962	0.25254347763462887
Si	4.1462371466759524	4.070235011770007	6.653524239655405	14	-1.0461547297202638	-0.15389119494267514	-0.039156648473195166
Si	2.8001001280841327	0.1167204786015312	8.195925306857687	14	-0.9635908814586046	0.36542065762083387	0.5667353759725763
Si	4.074070206466785	1.5803286947568054	9.631756921421823	14	0.4780348135327877	-0.760605715980362	-1.5600772884222103
Si	0.0018767974048065	2.839855593111164	8.092113930405736	14	0.37283341136935283	0.46849112769493007	1.4844052879712082
Si	1.4762561986659266	4.303888128679699	9.546370799491845	14	-0.05692941399871876	-1.904836543690334	-0.17675140656517574
Si	0.139372607278674	0.11298320376935131	10.680951950618391	14	-0.17178608797090575	0.46285937860167775	1.93038870258303
Si	1.3237623295310403	1.4606379802624498	12.372142252078245	14	-0.22198229135722072	0.42276787623407663	-0.7995029399267543
Si	2.850284058690915	2.874388665359604	11.020538041046334	14	-1.4320262161680875	0.36802158776269567	-0.14110534529611077
Si	4.358739572832348	4.11573510885349	12.249970901014056	14	-1.238487034525537	0.635417312389692	0.29122781406051285
Si	2.681045892709668	0.026650523148252298	13.618972207989652	14	-0.14293005874181983	-0.24167464411476694	-0.3293804459061902
Si	4.019202442336702	1.343460542292792	14.955496759873375	14	1.184890030132262	-0.46687415955908895	-0.3050878715098351
Si	-0.14071084542818818	2.7946818955763435	13.843257657852744	14	0.37983453115611604	-0.559041343302033	-1.4565383629587831
Si	1.44595000057266	3.9793816973999383	14.985966157740974	14	0.07383777391560857	1.4852128721522666	-0.6620848167702678
Si	-0.0087801478590078	5.297905314174954	-0.0126643024880856	14	0.8642359156826543	0.6026904841011231	-0.40289323210933203
Si	1.2737089587437227	6.683193958628781	1.4215353143327425	14	0.6866697258415236	-0.5385745736220583	-0.13777936345396719
Si	2.7232983142839635	8.030718175302415	0.2195852963623605	14	0.019837363097602503	0.9132175289157313	-1.3746244901220575
Si	4.273222891082904	9.478691853076779	1.3137908233194162	14	-1.4235953047127898	0.42399403636125527	0.12610063175825859
Si	2.8468405434525312	5.369713214880594	2.651506733555757	14	-1.074584469687269	-0.09942901360917047	0.3700471045339083
Si	3.873660883588317	6.792782607092048	4.173866868470191	14	1.168464523794496	0.6458840250374828	-0.9472309383065024
Si	0.0811592477748063	8.175443735179146	2.6635508769013847	14	-1.2687250328642024	-0.1842199532991419	0.44688330147387356
Si	1.2700696037761414	9.604029279762987	3.9887820044014037	14	0.4571317272799838	0.5186464505066547	0.35508121468639037
Si	0.0443087387308665	5.355547474468662	5.39770197617836	14	0.20056601248251532	0.8215072305881774	0.2535914601631212
Si	1.453816229695414	6.795834442872037	6.806687227865049	14	0.1334128552887597	-0.713291978768465	-0.9819264619387087
Si	2.6174795806077436	8.303947237487375	5.390292706423733	14	-0.3128616084453028	-0.6720599340808463	0.08231239416134865
Si	4.139333796221751	9.447602296066725	6.6744464507246395	14	-0.10251408288281615	0.7417371453673913	1.4887576550571548
Si	2.9089380575854764	5.43123952980338	8.115892137525764	14	0.11304275916882253	0.40473517196068615	0.3260873742121445
Si	4.084743471708032	6.985146181095997	9.45927107993139	14	0.6861377641507851	-1.603443864746616	0.2567760312126566
Si	0.1110248064773793	8.118013734592067	8.05180358614598	14	-1.1557388380124232	-0.10070659584275206	0.18670364103840492
Si	1.3412083854070243	9.491584635248929	9.416822818627896	14	1.0230410071131966	0.5215787961242836	0.4987471237708367
Si	0.0527951269960785	5.435727523597483	10.927661049474562	14	0.11888353912460292	0.476390077459489	0.4363566820721233
Si	1.3573978030206593	6.8513550060994435	12.251260179231272	14	0.589336420178806	-0.1636207716951795	-0.9689423800719607
Si	2.7628579395817985	8.192041152228608	10.838341812983206	14	-1.1593440418923346	0.4145385394358787	0.21206476680581354
Si	4.099970010653115	9.481482569217839	12.20660872097431	14	0.5045917603845973	1.2900353821997177	-0.679779420694059
Si	2.8051266811335274	5.531166751626252	13.431439347305899	14	-0.3786083710289374	-1.8586389232979137	0.6716660407457996
Si	3.9289366471542264	6.801138435537795	14.921534886835094	14	0.8768050211507303	-0.049726205333791906	1.294362552453527
Si	0.0971528256592443	8.04600999415723	13.698532097976013	14	-0.8553823145127246	0.9378800853676559	-0.2248886688111161
Si	1.4104050897233682	9.451274290989172	14.986765836635195	14	0.5208676283927306	0.313767665960123	0.6103500639603763
Si	-0.0468872951652963	10.898807329372842	-0.0785154114306441	14	0.32289457562558466	-0.45591790845834196	-0.2897435149591914
Si	1.290110536063988	12.25183137844143	1.2885274982529773	14	-0.1366349644759693	-0.5087330397237597	0.7610620871746884
Si	2.699503787186504	13.544732630646479	0.0420239418902325	14	-0.8037732887529883	0.8270525905426729	-0.7704612768935536
Si	3.9968603932307887	14.917259052747623	1.3248720879964913	14	0.7533654833988249	0.6154807046267318	0.6523025323587004
Si	2.7082023351583464	10.805391778545777	2.595480251027925	14	0.45838848356047224	0.7179500502769772	0.3822953360580298
Si	4.036697458144986	12.211031434858679	4.133866603781663	14	-0.4030811799082349	-0.44294591078659884	-0.25651403558053354
Si	-0.09891538322201911	13.627132196706201	2.648895537166461	14	0.09449377694714622	0.5885442626296684	-0.07965952769201987
Si	1.2739374384277862	14.927801758169405	4.099349851510657	14	0.08131326263393912	-0.29444863769506235	1.0158650521646633
Si	-0.0582133595038677	11.057796549526103	5.353833876838188	14	0.5917360327741003	-1.2844733100606414	0.2183369782343148
Si	1.2327294954092085	12.262161924156583	6.846981252147372	14	1.2845807822630235	0.04113537112758113	-0.40713684144023643
Si	2.737366134831296	13.591146646466214	5.5828358001794465	14	-0.4878330387973401	0.36083252017702966	-0.7855346389434537
Si	4.077122042246774	15.101283118283257	6.840045261738306	14	0.10395801563061133	0.04861780183027607	-0.8267042057717928
Si	2.709883292833956	10.94675542307129	8.121620449604782	14	0.6581793077889629	-0.7324819375464542	-0.0849937998997311
Si	4.138648357169561	12.328127272941172	9.516293081082642	14	0.04030953209874956	-0.7325266747790248	0.13144878793469858
Si	0.06795638603142841	13.690029389733368	8.16530902919319	14	-1.6286471246473673	-0.2401224678329935	-0.20148363997127616
Si	1.3508208521151202	14.950078527365585	9.518382038194078	14	1.9606781230280983	0.19075133214391404	-0.1986957904726396
Si	0.0825627658340529	10.855983708588388	10.816473043222853	14	-0.17809095243697287	1.0700914631403105	0.2644081002449842
Si	1.498027048561682	12.253006416816612	12.30488762507644	14	-1.0375235291605267	-0.5513725074636274	-0.4420203128713455
Si	2.7750326427468908	13.567237879526724	10.90895835533623	14	-0.6874359152269278	0.4254747359151285	-0.4885331507760164
Si	3.981927613879502	14.955823159422037	12.267008957454214	14	0.8184879816107277	1.0667063458758035	-0.37657539805229634
Si	2.836836397286041	10.83788485361508	13.588617049964084	14	-0.5562982310359672	-0.13018354700665372	0.9137425486221056
Si	4.056444630839037	12.229962608681076	15.099749040404546	14	0.6738157419039754	-0.4560883727410678	-1.1815838458010834
Si	0.0303877979804322	13.634051867137835	13.58143625989352	14	-0.26549696334806694	0.1505829537272406	-1.5652261839363388
Si	1.3541338075340394	14.93994382137963	14.887230294270719	14	0.1398300770573173	0.18072762094278474	1.3945780671801307
Si	5.444213911862695	0.0768834136873341	0.059110958262688196	14	-1.1317882206236478	-0.9174223145563016	-0.30718126546149965
Si	6.782696861038392	1.2573563413557565	1.4475003984288044	14	1.690506890208002	0.12284149865443886	-1.3631218791407789
Si	8.28338406592167	2.5396006482969904	-0.0392005857943062	14	-0.5706982206025204	0.4927333084270102	0.6119544336801487
Si	9.52438778988946	4.132153006151187	1.3115713063885148	14	0.9086571594093849	-1.2811663543978669	-1.2388493032651458
Si	8.05764613806703	-0.0165810970720296	2.853042134877109	14	0.6688452810990652	-0.5152309941993699	-0.11819859666731548
Si	9.458030761646475	1.4103561297910687	4.105600402867534	14	-0.09124210004875495	-0.0497711996768945	0.056888790534660436
Si	5.475336108827617	2.550959352590428	2.6378795523991183	14	-1.1922508475533138	1.9899887236777865	0.8025594699313462
Si	6.688432671384806	4.196584277057066	3.8396337306403034	14	0.42499625321504897	-0.5265104332388596	0.9905607478248301
Si	5.528881954785619	0.039657545162433	5.3972939767425325	14	-0.9992135456692562	-0.6889389833970864	-0.5291195909177459
Si	6.844941254968235	1.377079695804978	6.68461379666546	14	-0.11178343178301399	0.7577389335483968	0.6858081484487422
Si	8.067682924188386	2.842776869071689	5.3567714727761455	14	0.6669022968086292	0.4565719976517875	0.06680451531234351
Si	9.667073352587053	4.061063184452604	6.807144187233176	14	-1.3218006170985512	-0.42753830504507945	-0.2076936306510298
Si	8.056797499240508	0.1263819052419264	8.225774545582826	14	0.377334645453336	-0.026933356670679188	-0.3638363425225586
Si	9.614066065884344	1.2952350089779816	9.49302079326304	14	-0.34152789010176177	1.2366376384687543	-0.5045218263198892
Si	5.478567464359371	2.8260815321576276	8.010448763330505	14	-0.06777433623910335	-0.9176478004928785	1.21885330296929
Si	6.790465170296547	4.064310859961791	9.534816255469211	14	-0.3181136052827693	1.537288296417078	-1.580870588477844
Si	5.390733345814427	0.1103720073800553	10.880447354760605	14	-0.040832237810335674	0.18358951827464157	0.9507345835262682
Si	6.900527098105374	1.521185096539251	12.178522039811945	14	-0.9170682733537171	-0.7299046615735377	0.05048108185578739
Si	8.199140342412008	2.7751468825889227	10.656896303882002	14	0.663181907410375	-0.9562262073795725	1.1051279153379683
Si	9.429878800574377	4.099447771375256	12.109309015518168	14	0.965732355079756	-0.14146452870933546	0.5832099904219572
Si	7.986083037022887	-0.0927953916846066	13.479958640214505	14	0.966027775081041	-0.05224948809498524	0.2661255985988431
Si	9.527309065849984	1.2367768498126173	14.717747328627974	14	-0.6811547049298061	0.33930311266823765	0.2639239611132003
Si	5.448114386469206	2.7049872996040256	13.673154533067544	14	0.828168193141085	-0.05559398189543385	0.1309188831282161
Si	6.795573323233107	4.029598267961587	15.12019797212822	14	0.6431545396296134	-0.6034672150183398	-0.5645021138914956
Si	5.4469719880488885	5.450333903400108	0.0047980733653314	14	-0.7019423485537353	0.21412756460416837	-0.4757922954725545
Si	6.796568841856527	6.805626429331897	1.3003268419371086	14	-0.2483582323944918	0.35527841846444574	1.0860968508687643
Si	8.104174393728798	8.111828463144922	-0.0773730130103271	14	0.6166449011156947	0.9372321668269784	-0.33714389842037734
Si	9.655796248180781	9.474497618876473	1.2494737922555692	14	-0.916266602714895	-0.5946159278431979	0.40511492421647205
Si	8.236725250440436	5.417889788263105	2.5722079632083243	14	-0.4550136507172458	1.5125030982413823	1.3913400171399362
Si	9.7267065501276	6.790057170860719	4.164597121288191	14	-1.217513757097493	-0.053737386743754924	-0.7087488356677634
Si	5.39564565902179	8.207071851444494	2.7977174113789	14	0.6235452335739082	-1.3073237514829252	0.532871347800906
Si	6.870171940079808	9.508116772388657	4.116567427702577	14	-0.47353460789093255	0.37389167831912573	-0.11267380555538128
Si	5.404132047287002	5.52341476234553	5.401063891529579	14	-0.5417069512335948	-0.8310987389849898	-1.5269668512198753
Si	6.79727060088615	6.670072696772569	6.68608259463444	14	0.8733204021103336	1.3800443801369298	1.473844729979232
Si	8.159433837317275	8.154586804019644	5.487706651721906	14	0.944499396014377	-0.4510981144251923	-0.3805004474340344
Si	9.620969416338545	9.478855052851111	6.81775217256469	14	-1.1699300538269806	0.3862306698610484	0.3012695229988832
Si	8.238814207551872	5.434666725064331	8.05395782316715	14	-0.080339070828135	-0.06030039018396492	1.1483273698165641
Si	9.514775323181365	6.919768351498998	9.562805016766976	14	-0.04015783688486083	-1.2772564745375177	-0.6554464799441775
Si	5.5735497330200126	8.155353842959	8.190180674801235	14	-0.4727769031530849	0.0901056714972495	-1.3022010812430624
Si	6.794137165218995	9.497492467079711	9.603963999853255	14	0.7088380530223725	0.1934093408238831	0.48881314414538046
Si	5.524475560878681	5.556299516873226	10.896832612103438	14	-0.6044563192350008	-0.4184473908540999	-1.404173175124391
Si	6.7798898249198984	6.7695592792047465	12.341248534797385	14	0.6750542433366908	0.2893071983863622	0.8810884826140969
Si	8.171347420843437	8.079008988526958	10.971512828837302	14	-0.2957488456554613	1.4012449432752747	0.7465507687477726
Si	9.570410126250803	9.60835407378276	12.355756994735412	14	-0.7265221154143511	-0.23465938324874283	-0.9846538904623218
Si	8.205782573227278	5.29535939769539	13.690698508808124	14	-0.8863960153264786	0.5922577100435581	-0.517316417724542
Si	9.519116437178567	6.859939314229254	14.819273908239289	14	-0.0581437470414247	-0.6372787926414791	0.5295199120160928
Si	5.279235259991488	8.172245019602258	13.627866595690689	14	1.269514876418552	-0.4062678078420264	0.02699814852474692
Si	6.780314144333159	9.549487915181567	14.836214044814847	14	-0.4076898861946002	-0.3860473500517218	1.0053363758786567
Si	5.564067826131382	10.932671282546524	0.0393964255235034	14	-0.32385308368893584	-0.6042727423151422	-0.9462647169271907
Si	6.87586761220396	12.251700818621966	1.350151733040363	14	-0.12341022715125563	0.16886017011657722	0.77373403685557
Si	8.136014669700776	13.692281546619135	-0.0140515005698991	14	0.31208307775436195	-0.4759064525487692	0.06837443222082593
Si	9.51265372611506	15.095848565798036	1.343623742067123	14	-0.95559165858656	2.21431560597645	-0.22353935273910244
Si	8.229707660144204	10.78208685077131	2.660972320466955	14	-0.5247901066691485	-0.23714872741971024	0.5764729231515731
Si	9.426353685448827	12.181459635749905	4.2480248459261984	14	0.18994066263647133	-1.051884952147278	-0.25223031700663484
Si	5.339602856516524	13.505124045416345	2.6919802775898454	14	0.21696915020399601	0.01837928927054653	-0.3346411845017452
Si	6.7215785455514325	14.767849659347592	4.050210399459592	14	0.6590246872182276	0.6025472735347908	0.7940511682059122
Si	5.480917541109737	10.933715761102242	5.520803565956234	14	0.11044131480589671	-0.17285283956823522	-0.8630082128922838
Si	6.645054171367627	12.327751913460212	6.978030670935166	14	1.3020432153764052	-0.27388725133930614	-0.09628249491837325
Si	8.220992792194927	13.564789882911759	5.576307809206207	14	-2.1886585459866925	0.04563403410624422	-0.34162584921445943
Si	9.310400245786651	15.03711296701631	6.894031747087	14	1.558266201834698	-0.26122635741130096	0.1277242847679321
Si	8.144060418575295	10.851920034207545	8.271976401695932	14	0.11642324844375322	0.13994192013874374	-1.039454429255958
Si	9.53961432883454	12.233063404393366	9.524812109302719	14	-0.30671898072493703	0.39734915770749674	-0.17388462413321062
Si	5.373825849193735	13.850813807404268	8.25816970078753	14	0.012738284198141641	-1.0498553216075528	-0.49705507935964727
Si	6.730130213726376	15.119284053391967	9.541997045539775	14	0.8583539980417516	-0.5646556088791085	1.083630389535146
Si	5.616471273669065	11.02977514827347	10.96754707432106	14	-1.4708547916024317	-1.056800648408869	-0.6323217015842337
Si	6.9308332961986405	12.353651717646542	12.291750043242793	14	-1.050813572560372	0.6562468650303395	0.33793836996430304
Si	8.211706725035494	13.620849005394458	10.884462069209148	14	0.2410043569578043	0.9822406510088308	-0.5168075959816847
Si	9.641091948513557	14.937903824200493	12.264479360952082	14	-0.5088914198114809	0.5388663940758952	-0.5646733495058175
Si	8.104255993615963	10.98393233166389	13.654941438252203	14	1.6688898080077932	-0.20219892147134133	0.2475159382916113
Si	9.619516938347	12.287653728907085	15.077276431479167	14	-0.47404831473389814	0.27567571220000114	-1.2692803916133544
Si	5.336191981233006	13.648005447843136	13.617177010472009	14	0.37343762111958756	-0.8126340890178144	0.3339223034542318
Si	6.6657479027527975	14.937805904335894	15.043722557876714	14	0.3056308889534503	0.7305152990870729	-0.8996631758889748
Si	10.94675542307129	0.0373237883894997	-0.2505279735755181	14	0.41115702171881996	-0.13839000096750237	1.341867837011775
Si	12.162561101882375	1.4542079091538087	1.4169004407417418	14	-0.6722797635857191	-0.8269006382182521	-0.156806057044127
Si	13.528314733348779	2.6029874406471505	-0.0277766015911362	14	0.3866603015600451	0.671220211083286	0.29550767597643135
Si	14.941249419574278	4.043470248779722	1.2618932950821582	14	0.19156894363572113	-1.4028899364591052	0.46177205816178707
Si	13.543231192722635	0.0151449390579168	2.755628189578935	14	-0.7617321172211189	-0.25872441482426484	-0.8154646188647655
Si	14.995284864855273	1.2206037521764153	3.945827823797485	14	0.7851952530411942	1.5273080368958591	1.1451548829620335
Si	10.82340903363192	2.8233887358811662	2.813433549646975	14	0.15460339111635618	-0.19221120574469414	-0.5962418948476598
Si	12.36053874812331	4.036795378009584	4.092723940672818	14	0.4277069695540811	0.3801317509311251	-0.01765809422824499
Si	10.754963048277498	-0.022031969534685	5.493173844161995	14	-0.6071976317273426	-0.5022253150479329	-0.7098245861337132
Si	12.153405594542404	1.243761800153984	6.7067926459970435	14	1.4147501881904165	1.242360661800872	1.228800909452943
Si	13.698385218179116	2.5731708418768773	5.448897745385994	14	-0.5147689665733394	0.23133777228564353	-0.4684355918200148
Si	14.940449740680057	4.10968039722581	6.78305590054192	14	0.11203077211481224	-0.5371162426844704	-0.7047782777218587
Si	13.675374049998444	0.0250185254049423	8.152726326592271	14	-0.2775865576739352	0.5335904859589514	-1.0040490234448587
Si	15.029622097374515	1.3968758284313283	9.467104669099278	14	-0.5129331973747536	1.1508285410720043	-0.21316879943028513
Si	10.994213917446745	2.7699571297651966	8.193640510017053	14	-0.19105292279796743	-1.0303545161963577	-0.38944737972708565
Si	12.287637408929653	4.171810551313621	9.51655420072157	14	-0.5600433030452949	0.3409799875580382	0.13462204612082534
Si	10.986135528617359	0.0728034193290591	10.803841380689633	14	0.0021720697744610972	-1.4467043993302808	0.5329628791503033
Si	12.306731782526379	1.405476456538572	12.16649421644375	14	0.6175257617983775	0.1010076722757414	-0.11176517693524096
Si	13.640514578201342	2.8722670682933007	10.797313389716393	14	0.8705436083645736	-0.8385888830036453	1.249012368374627
Si	14.98831623449134	4.242263893892313	12.384121115514139	14	0.5111763611094965	-1.8011333245969496	-1.532237360015647
Si	13.726390299454316	-0.056173362324730206	13.470574653190473	14	-0.729299937602239	0.5457471861336755	-0.374190954978391
Si	14.854557699449652	1.2498817916913967	14.970723298818458	14	0.7783057192253254	0.4333289484471169	0.2984109681039425
Si	10.87573088128244	2.684832127474147	13.475127926894306	14	-0.09190750210560929	0.5973158455398856	-0.16688247590431934
Si	12.33310486605827	4.003731103730123	14.867891121012493	14	-1.0506613631254194	0.09113591339903283	-0.13759372964985253
Si	10.8877913446055	5.429166892669377	-0.20830819195608838	14	-0.1589950961137011	-0.36271611193457015	0.5853113548001141
Si	12.179697078187129	6.681072361562478	1.2842027042332058	14	1.1525511816365033	-0.017113019900373595	-0.3165920251543057
Si	13.606226305614399	8.097124163477698	-0.0357244306010559	14	0.08246203249098129	-0.929702942007457	0.3242400350396181
Si	14.960523312922769	9.438463108704187	1.2480865941737556	14	0.015834666335195976	0.9928179211853878	0.9118692412858457
Si	13.748552828808464	5.457090374057411	2.5979445676203228	14	-0.9650322431010795	0.2991452757833768	1.3466236105224527
Si	15.040997121645386	6.877940249337963	4.167795836865078	14	0.5343127094433809	-1.1225438114450552	-1.6518667767936248
Si	11.008102218242314	8.113591020707696	2.6192584581479514	14	-0.9391499542852768	-0.1793721342180027	0.549470660858314
Si	12.273471668517722	9.444338300580105	4.005558941202631	14	0.4705382417508319	0.4839308722529512	0.23326044484405029
Si	11.021892599173283	5.377383604274151	5.547405129172187	14	0.4982629846390527	0.36101866820220835	-0.9344849407924003
Si	12.364732982323616	6.726719338442859	6.896430783769666	14	-0.1887152738408888	1.1863028525056833	-0.48401880405490033
Si	13.725460060740629	8.188254917464128	5.409011720539498	14	-1.2713331621009607	-0.11344385159876563	1.0623645203216692
Si	15.08008346759766	9.544412402199873	6.728498215983066	14	-0.19042505887878725	0.2350751309790108	0.07502433902085692
Si	13.744619714247087	5.439709598091159	8.20273073744729	14	0.17335060555821588	0.7675353590392251	0.2562160444739284
Si	15.152658407242656	6.813688498183849	9.56045494001661	14	-0.8880469220525458	0.3369325535630611	-0.2906385167211349
Si	10.915486346309471	8.15019673009014	8.215998879100399	14	0.8413721045127056	-0.06040220595464278	-0.38541357259030534
Si	12.339926616625304	9.523620750950103	9.492743353646677	14	0.08626778258586447	0.10763469623842307	0.22419627014840024
Si	10.8761062407634	5.537237783231365	10.915600586151502	14	0.08111914418226794	-0.38721566030919713	-0.6406880782959955
Si	12.374720808512674	6.838413263994995	12.13111250536879	14	-0.7049042618825458	0.19411099546575153	0.49544376765551035
Si	13.773212314709879	8.228222542197791	10.917558983443474	14	-0.3568254525355788	-0.28967795177352756	-1.0113915860181375
Si	15.113751581042147	9.522690512236418	12.233096044348232	14	-0.11725680078854522	0.25053930103757344	1.227397857279738
Si	13.587001372198207	5.475531948556815	13.555307976023128	14	-0.515230737088838	0.5346204707502026	0.7661004251600504
Si	14.990519431444808	6.684793316417225	14.971882017216208	14	-0.11900720929050206	0.4553934029730317	0.04766263620384106
Si	10.92986424642803	8.13619418945254	13.516923389100477	14	0.20569973847525497	-0.058306498008190086	-0.41597295909398935
Si	12.280277099107325	9.354154105284794	14.925435361441604	14	0.2951240670626652	0.7533045482027374	-0.7160271206080385
Si	10.999028310789509	10.7688187091182	-0.1055249740824246	14	-0.5152302228677739	-0.05065386013330134	-0.16865062503298517
Si	12.273977587818147	12.112360851298158	1.2269685433753241	14	0.8758344288923744	-0.07265352280514838	0.033276787716548524
Si	13.634166106979865	13.47535640657837	-0.0622117539749772	14	0.3514004203100664	1.0311320184451704	-0.2692978283428418
Si	14.856581376651356	15.112837662305893	1.2546472251018619	14	0.22184293744886874	-1.5804448134368272	0.5153055562536543
Si	13.547082707396847	10.94980725885128	2.709524253330428	14	0.8640844775792976	-1.1488523895229386	0.11482273538196106
Si	14.904839549921032	12.296564436585557	4.053262235239583	14	-0.6431226579236438	0.7746817462765766	-0.19042557309985125
Si	9.88501033122867	12.858755019200988	2.114563156029334	14	-2.1556463250075875	3.077168009886333	30.073163233927623
Si	12.330167270120311	14.983518161126007	4.26282706545802	14	-0.6233027783422181	0.23345970550636178	-0.20778079112138287
Si	10.941679910089595	10.795550832153618	5.4051438858878535	14	-0.04905514684523326	0.10950311847457467	-0.22482413406758042
Si	12.11748532421215	12.191267942187196	6.865749226195438	14	1.462418480825962	-0.1393837331737396	-0.9118792685965944
Si	13.63791970178948	13.622056683724507	5.599971776484201	14	-1.0918103611111971	-1.585455897705796	-1.0245286486514342
Si	14.932942551060831	14.989899272302349	6.741244118358318	14	1.3548346924728776	0.7156198575253271	1.3608017136998771
Si	13.697503939397727	10.899296928695836	8.08049410647337	14	-0.6170804463569277	-0.22579832587338455	0.27198951850250486
Si	14.898474758722124	12.327294954092084	9.46705570916698	14	1.4318202706319434	-0.6554315675333205	0.0271089631640453
Si	10.866330574280974	13.595079761027593	8.112889261678074	14	-1.320011899127324	0.5232273888555625	0.1634973586398124
Si	12.25119489932154	15.009744364861	9.273174377261752	14	-0.10532352966614195	-0.30842439488379125	1.8800019802924919
Si	10.847774759939538	10.85252387337257	10.80276426217905	14	0.9365099433425489	-0.028532327069279276	0.7537794313553688
Si	12.299453072591216	12.223042938249442	12.170900610350687	14	-0.0853360140178428	0.04722657674154395	-0.1681212344475667
Si	13.624977959685031	13.686520594585252	10.758667683154812	14	-0.831445581092678	0.16787106589991627	0.5546534949626685
Si	15.047525112618628	15.089842814102655	12.016709463562758	14	0.6458688555160937	-0.9806604496790676	0.34817574001753665
Si	13.607401343989583	10.880316794941141	13.650861443893927	14	-0.21691412855014489	-0.9890551085493512	-1.471019085232389
Si	14.989785032460318	12.230762287575297	14.786291233846995	14	0.32583437744864197	0.2050279086551003	1.1438197079692807
Si	11.036923298389167	13.626822117134973	13.600808073106611	14	-0.8709452150155808	-0.8455478366631581	-0.21328449916969178
Si	12.409874039903572	14.948691329283772	14.842970515472151	14	-0.1496205890059092	-0.1345860506463433	0.7717792254806615
H	-5.931125334572464	-2.8017092778590365	1.4093230752195536	1	8.327458661862364	9.891022369098694	-11.913590082509142
H	12.71270427715669	10.665769475612377	0.6403371625560847	1	0.32426317498749946	-0.6580880335500976	-0.23755187673390948
H	9.590863953967705	12.251700818621966	1.350151733040363	1	-7.25959866102941	-15.00209049620456	-18.312923385801803
H	4.191252540429673	4.303888128679699	9.546370799491845	1	-0.09570193933708382	0.15132677449635945	-0.10519008930002628
H	15.079729324087362	6.726719338442859	6.896430783769666	1	0.07873650088208671	0.01526105273827094	0.03490069783675405
