224
config_type=interstitial dft_energy=-23336.926088759683 dft_virial="-19.452056081561874 1.1592068304419139 -10.889273919412542 1.159206830441914 -20.857644851575063 0.12521049388048547 -10.889273919412542 0.12521049388048547 -14.996985928330403" pbc="T T T" Lattice="16.3852778749 0.0 0.0 0.0 16.3852778749 0.0 0.0 0.0 16.3852778749" Properties=species:S:1:pos:R:3:Z:I:1:dft_force:R:3
Si	-1.1038433998762633	-1.0508861817845865	-1.637610211929006	14	-0.02718378232886161	-0.15112442850766378	0.31237489820819875
Si	0.10334194755699432	0.0656721937225992	-0.04242148441811611	14	2.108811327606302	1.1080134668387704	0.8885837688433927
Si	1.4361040646234855	1.5100508236729093	1.4068727288946639	14	0.024459182021100694	0.3378044153771233	-1.0275365847654754
Si	2.833555258740082	2.8865452473875086	0.0119940234044268	14	-0.09818202752889865	-1.1311960950684175	0.013682908292764048
Si	4.239592338463126	4.063122895750453	1.4323518359901333	14	-0.6895138825466715	0.8177845271951351	0.20484227485098558
Si	2.6978032315465352	0.083401064383241	2.64056945592951	14	1.0704457614534268	-1.1193741528063768	-0.49544993830827866
Si	4.155601404076389	1.2004673835045485	4.017014723810484	14	-0.028476791194364078	1.7091995972170746	-0.22757753075492698
Si	-0.0036375316882278005	2.75931356468891	2.75112092575146	14	-0.6061421929934219	0.6398118456028891	-0.9696700028775628
Si	1.3540629783038614	4.096614403726749	4.042018657847581	14	0.20836828868703666	-0.023384974218342822	0.7787880585833852
Si	0.0886115827474592	0.10219497810575132	5.271897615137576	14	-0.20376652438503565	-1.504230823984338	0.5524150906709475
Si	1.5477041922294295	1.3698747714531396	6.589634432392784	14	-1.4585481959875428	0.13225200123671285	0.8506882475297302
Si	2.797474876859552	2.7215782697430155	5.311107585092212	14	0.4178740343677068	0.19373458564688184	-0.6153220674284786
Si	3.9109692054041316	4.0261577088646785	6.884700516363983	14	0.6335517183693924	0.8824061740906729	-0.8178099811378046
Si	2.753251011875197	0.08150037214975261	8.078023918715076	14	-0.5247366276784894	-0.4421740649694903	0.5176198081523197
Si	4.011623967389642	1.3944854588212396	9.51856839364266	14	0.40249239678992094	0.6615711099273022	-0.020169807015497653
Si	0.19550913560330682	2.848973805220363	7.989412335967616	14	0.45172777811809656	-0.4640390017225616	0.34541488712476165
Si	1.3823439679159386	4.169872981105427	9.575687472314561	14	-0.2110291255828579	0.527991904124329	-0.8400536417045337
Si	0.10956835314945632	0.24291174449539252	10.659114815958699	14	0.4913078876375201	0.15688216176160338	1.1617608808932738
Si	1.506659071152805	1.5724295765426535	12.311865024644112	14	-0.8301790546119728	-1.1083430825408134	-0.2413722821291175
Si	2.75516808938656	2.900112257467926	10.91195603884628	14	0.6235688877428535	-0.40427828654529585	-0.07893216199694998
Si	4.048605539553292	4.2036758093613456	12.375243279464225	14	0.5343137378855091	0.057885865177813856	0.03829327130668944
Si	2.9240347631652797	0.043519298035734406	13.587409751371451	14	-0.8443203909833195	0.6877765866818474	0.28290823146557764
Si	4.2004806801757395	1.3586017002752087	15.111650225684025	14	-0.06919281504422907	0.2896249870039325	-0.15402823485623904
Si	0.084548033834484	2.924673789002401	13.706153860130852	14	-0.2861311119843833	-0.766055945038012	-0.8674685664016766
Si	1.4549143636238706	4.17991715644274	15.031624528543013	14	-0.5134366197964386	0.8071578917964309	1.0200402700940518
Si	-0.0359656849354055	5.563244241031173	0.0690475609648286	14	0.7983631689383326	-1.3609264123079046	0.03168501641284485
Si	1.3610431066785686	6.834627107178289	1.38947156379152	14	1.030637852002638	0.14898269777598044	0.32338822784705307
Si	2.7360956259401767	8.143761653549173	-0.10494770478873451	14	-0.12059795215207766	0.14149769596796538	1.0545763851964087
Si	4.103397908766957	9.49466227322318	1.4017932927534449	14	-0.2196724103375997	-0.651305971936611	-0.7638607353156693
Si	2.82161039116928	5.427819919395124	2.875698193434325	14	-0.5441315035504944	0.1395403134877366	-1.6442447350720457
Si	4.145295064293077	6.723485767352842	4.21763606611076	14	-0.6887446078348832	0.49663547497139904	0.6149402582884367
Si	0.0509090583573143	8.312038457324398	2.669669709435332	14	-0.5069834025533989	-0.3323932671203397	0.5204907043527969
Si	1.4214556262033249	9.555336957193934	4.1437220776170856	14	0.1510881759226497	-0.32974168620367095	0.39790194535132856
Si	0.0770435765677798	5.4940655978433455	5.4713228321529845	14	0.2285879751457452	0.7664308121936895	-0.5149132055817996
Si	1.4198498689715846	6.941246110310263	6.878687119383895	14	-0.7341572697730627	-0.7627870417339756	-0.20196083711869567
Si	2.8647036719802665	8.177351473192719	5.635355848958608	14	-0.20491992223165406	0.4564095037955543	-1.3074708187072377
Si	4.227254224223326	9.489353443191712	6.996530037860176	14	0.21381723219202647	0.23550964777811587	-0.991931918292065
Si	2.774977890337315	5.602503366819433	8.198980039987587	14	-0.32736444222466204	-0.7818813553940553	0.7363367957529522
Si	4.074264884705385	6.82961321214857	9.722548717907289	14	0.052914890151839554	0.9093007070710177	-0.7372089146775465
Si	0.04178245858099501	8.234765486866369	8.241647303573826	14	-0.45916264337236884	-0.2617238662907496	0.3663066605141569
Si	1.3833926256999323	9.700494133887673	9.471165784750573	14	-0.6923097024718006	-1.4072713570351698	1.284083016273043
Si	-0.1415851861170109	5.464375474334026	10.84661155068118	14	1.4373257784539766	0.37703922545205104	-0.22991672237519772
Si	1.2071525768775078	6.82613953323909	12.236672984476195	14	-0.12810532257637805	0.0994398122515151	0.12373624330585041
Si	2.57252139691505	8.219068390662214	10.954082588262649	14	0.7311907284546758	0.1696299590494296	-0.24628489306432438
Si	4.166399302195948	9.38160385588637	12.352402202106614	14	-0.6824492564585006	-0.5319678613914058	-0.11973920297514819
Si	2.6324095875478095	5.605043084890043	13.645085929491099	14	0.7758035195277573	-0.09648946889664516	-0.05232790680724974
Si	4.18656957925995	6.818585920138761	15.037539613855852	14	-0.48479013565094475	-0.756631301376477	0.14084052144813552
Si	-0.1766824513250467	8.145777042727786	13.616002061263153	14	0.11704391326803697	0.057897435151754516	-0.24408068447336148
Si	1.2787890117465708	9.434364450643548	14.938703617714456	14	-0.21982616243574454	0.08563169112965982	0.09261378473705395
Si	-0.24363269672188814	10.779776002229461	-0.17902554606115742	14	1.7290675564679872	-0.6059077081882244	1.5668513796092045
Si	1.2456088240498981	12.072508885447572	1.3058574907959055	14	-0.3384669892181255	0.1331367185773758	-1.1768761519598923
Si	2.7015226896241376	13.442268959955587	-0.0710793354213162	14	0.03440884538900973	0.16794537084366856	-0.163299640640693
Si	4.021356822447333	14.865248417001279	1.274627151166346	14	-0.42222357323780135	0.06272648516405664	1.1003623716270736
Si	2.664459191071114	10.79943833567934	2.6067338571178413	14	0.2504130597663542	0.43792557053847764	1.0847974142399615
Si	4.028140327487542	12.098086304210291	4.115096997169635	14	0.7407138454499723	0.008627086791224864	-0.7009948962432608
Si	-0.035392200209784	13.621015956292872	2.414042989309017	14	0.9219487454724222	0.412511480001474	1.9365922654994834
Si	1.5915020399890372	15.042078335827199	4.023568834960445	14	-1.695434413554066	-0.989849580093277	0.02716989836013281
Si	0.18975790306921692	11.113281948095176	5.4405840508596714	14	-0.8401626565701079	-1.085552804983021	0.47206753519525607
Si	1.5848987730054525	12.35035404237225	6.839116673316011	14	-0.8856879329213099	-0.23998157126144937	0.9834259305614189
Si	2.9146459989429623	13.582821873566479	5.473108827441348	14	-0.5346474673560643	1.0216027307971056	-0.5446295266510072
Si	4.087995747564551	15.06090502010546	6.855993509527159	14	0.56086194297923	-1.1471672870961134	0.1344544100539517
Si	2.869766722843611	10.825835018335805	8.28593670966968	14	0.07941784379192596	1.4732430913343173	-1.2463402186153971
Si	4.179687762552492	12.219255434095176	9.579292233447038	14	-0.28329106904774776	0.3733838850183965	0.18878057991602054
Si	0.007684695323328101	13.789833474237966	8.116955338945838	14	0.309322739082651	-0.8559045060032465	-0.8048930051199126
Si	1.3469026118725298	15.076716813254738	9.427302395879465	14	0.4347001189143519	0.6400255044549933	-0.00477814212696319
Si	-0.1549228023071795	10.909973420223418	10.73800992892634	14	0.3061160565273623	0.8336281923989516	0.13935956478373018
Si	1.390798771299387	12.124073354919881	12.107049051207863	14	-0.061102832154383134	0.32082714983765354	0.08333826518408775
Si	2.643486035391242	13.621523899906995	10.707156450687904	14	0.3387999473570847	-0.14873330055992606	0.8846687467724031
Si	3.9963365031323606	14.973817268200365	12.170328994360725	14	0.44036194993985	-0.7683691684945492	-0.27382143104311035
Si	2.6845475417457414	10.678711608297078	13.534616386058524	14	-0.09753565165141342	1.0348950881917391	0.5406895648584121
Si	4.083620878371953	12.05002828420321	14.954384328640735	14	-0.4188855072006531	0.9409859805943946	-0.8225349013846406
Si	0.0921835733241874	13.622801951581234	13.53520625606202	14	0.39446026376977833	-0.5672853354005559	-0.5387378388098879
Si	1.5074455644908	15.092135359735018	14.944389309137046	14	0.4981398286942176	-0.8437560333655469	-0.5698060470564291
Si	5.425951997717386	-0.18567796887836682	0.0699815218036979	14	0.71011640658755	0.7056030883085622	-0.9499267422346777
Si	6.84342600139711	1.2741847486637237	1.3313038273356252	14	0.014166533203483902	-0.3188767093417892	0.34976134066847203
Si	8.251150764741269	2.648090298474089	0.0375386716113959	14	0.9254289936337747	-0.8165401122201834	-0.3542250366147811
Si	9.61999326368829	3.9923057247751355	1.4369724843508553	14	-0.8341660676319266	0.34411390783276674	0.9644378035510616
Si	8.03951851570906	-0.050581352799816306	2.909779571414117	14	1.111046085563885	0.17583069375003071	-1.1565927020892441
Si	9.494416494055056	1.3434617035188008	4.244573462937096	14	0.41521268325082156	-0.7927077656761348	-1.028050291608441
Si	5.554789437647725	2.6872511125951	2.7102560427314595	14	0.24832712202011803	-0.6116263606412977	0.607864319336857
Si	6.921616547416133	3.996008797574863	4.180490641168362	14	-0.76827995113994	0.1898840983194281	0.24024099578825234
Si	5.37687809048206	-0.11081363426794871	5.4089276940053646	14	0.31972903075541836	0.8999917631488897	0.9729545899240519
Si	6.6794257551472365	1.3178187436445825	6.8431966075068615	14	0.18868570612970706	0.49909499432065263	-1.0683546814965503
Si	8.269961063741654	2.6692764627663346	5.565357941877036	14	-1.3680442602762024	0.24653943249101903	0.5238218284055808
Si	9.625367634831257	3.9824581727723203	6.902380231191	14	0.32588579955504493	1.2681732736624987	0.23127812264221612
Si	7.998670017966934	-0.0025888739042342003	8.144662843832293	14	-0.10088374499931026	0.3178973753253448	0.9644943678681046
Si	9.363055721331984	1.4095926850218972	9.447800378500965	14	0.15284784040375904	0.5757643265253403	0.1943740195400027
Si	5.401144687014787	2.7916253326582128	8.112973716422237	14	0.3975113944531981	-0.16637956770369838	1.6899044802314915
Si	6.701988282780974	4.256436404118523	9.703164934181283	14	0.8586622735696374	-0.8000577844548421	-0.9021946861871925
Si	5.355396991188067	-0.047304297224836304	10.78755900922004	14	0.20685236499027734	1.0596229507187953	0.8796401789872574
Si	6.741968360795729	1.3681543172762753	12.294594941763966	14	-0.7718306475870644	-0.1558660609390809	-0.5138893914433167
Si	8.094556664090849	2.7430102132033847	11.017821319196008	14	0.05897858493887679	0.4059453912348799	-1.0754599310487796
Si	9.590647231014344	4.0677926999448	12.358956313256575	14	0.009876386866284816	-0.08391984920750524	-0.6037433517297237
Si	8.133373387376487	0.0106012747850603	13.520344809029487	14	-1.0117841938005243	-0.2260063282937845	1.2983889033848788
Si	9.637656593237432	1.262698668873419	14.770967528109104	14	-0.6853998569239026	0.3989291019267277	1.5402486670826963
Si	5.511106286833241	2.8311466228924718	13.710708967380075	14	-0.8316749236872351	-0.9485658561887232	-0.38756533063273724
Si	6.957205370960415	3.945017812828174	15.068556944873038	14	-0.14679622981172652	1.3422079942456304	0.023388830876323045
Si	5.542615176186674	5.35567554091194	-0.00040963194687250004	14	0.5950946676538096	0.8111312779581878	0.414769938914692
Si	6.850766605885065	6.822502001550863	1.599072038367241	14	-0.23837128799944063	-0.43248151213359615	-1.233248921656799
Si	8.308761401749416	8.172714439554122	0.26708002936087	14	-0.8532650092815826	-0.9036859272728784	-0.9851706826316713
Si	9.530972048993958	9.639114882968299	1.4438379157804384	14	1.0534929214144984	-1.260851537042313	1.3871717411949123
Si	8.18714986936191	5.531063555284869	2.991378255231119	14	0.2950921853566954	-1.5239807695010554	-1.5711127295668181
Si	9.565004271140126	6.725959944311952	4.297563451584523	14	0.8197118277431181	0.8674096880898451	0.1657910416959165
Si	5.337897514417674	8.076598399539959	2.8408467073944124	14	0.2910691768622597	0.4470717634938405	-0.6793929835644406
Si	6.764203182871968	9.335528454502152	4.1388064942546166	14	0.9955643758883701	0.47406271292369095	-0.8177145931304272
Si	5.4247558724325184	5.356888051474682	5.523919574131413	14	0.9344137211750322	-0.6131723662703028	0.8849263715254819
Si	6.904608628981987	6.685488307960949	6.982061837496639	14	-0.7923131010094921	0.12146467175549959	-0.33187287540354177
Si	8.139747260469823	8.062883921958667	5.555494004596346	14	-0.17740241043223723	0.008274074030768535	-0.17486832902869925
Si	9.491024741534952	9.424353045861984	6.827433970191208	14	0.29760955457565236	0.7380278117220136	0.6235789150536022
Si	8.393440517806901	5.5070591231981405	8.339352715541855	14	-0.9641071594068903	-1.181641952781319	0.08643284754741798
Si	9.645734535229757	6.807001528681208	9.780470675195062	14	0.6534834410322444	0.6014671521897966	-0.2970346554260673
Si	5.56527601548766	8.16738922424478	8.303010169215327	14	-0.16415144783325805	-1.1798288093095504	0.4432891533468386
Si	6.8740664710231725	9.44904565961946	9.692580044674097	14	-0.2885003855368998	1.2615277377415117	0.2602966457275354
Si	5.469684304365494	5.6388131425902115	11.117378267563902	14	-0.08691210157909357	-0.6454767619547713	0.03810429506565856
Si	6.972968008276069	6.826450853518714	12.455137894382236	14	0.020888945173543068	0.484030631139373	-0.23581432375855338
Si	8.322639732109458	8.292539976653266	11.08814693183508	14	-0.27145370015378595	-0.869281452762913	0.11200788927746293
Si	9.610981360857096	9.659530939200422	12.466918909174291	14	0.9402704419837975	-1.0044732558226832	-0.2560149840378928
Si	8.30245306976758	5.4008169814572895	13.74937822316484	14	0.14805427164487497	0.41366282096383633	0.7755646638435155
Si	9.673278187337464	6.78697871911808	15.256070064873393	14	-0.9086160217242624	0.1417018417303851	-0.6739262994327417
Si	5.566291902715904	8.157295893073842	13.799402476516908	14	0.4118008264909851	0.04584203652664421	-0.4632378453048035
Si	6.953961085941185	9.456730354942787	15.16798281101793	14	-0.36609531565684067	0.477014856052285	0.2253771788219443
Si	5.410844771516728	10.866536048577057	0.0184170523313876	14	0.9267572266421632	-0.6039531539238477	0.23272308383213935
Si	6.798563110575634	12.169771894912978	1.4206855181432048	14	-1.4462799098419243	2.2385230767867084	-1.749626628828955
Si	8.073173876464105	13.638253268617266	-0.15223561673569594	14	-0.3483431189738783	0.06953631471500085	1.8692115654848944
Si	9.466971153614598	14.982468694918314	1.293470220722481	14	-0.8321567488242309	0.14643781773009787	0.6018183651765289
Si	8.044253861014907	10.854558410450505	2.5947398337134144	14	0.5693051957400642	-1.0082131856213705	2.8453257867368764
Si	9.377179830860147	12.212652167111592	4.066350795491808	14	0.1119412976496711	-0.3246912640233041	0.756473949730884
Si	5.375616424085693	13.568550296537442	2.768751484744852	14	-0.35888542211808144	-0.6199582845417695	-0.47561308943174024
Si	6.6275663506731775	14.959529305893453	4.100710723195474	14	1.1857549499619597	-0.9720909556470142	0.2584919869033235
Si	5.530342603058374	10.747300381481411	5.399506159227297	14	-1.0199898764297768	0.5890227453297479	0.8188903595933308
Si	6.802036789485112	12.135510278876563	6.803871940607101	14	0.2868841887326547	-0.04430091599774744	0.3210886312487126
Si	8.067422643930016	13.610381910952063	5.531948360290114	14	0.14463547290067408	0.26136005488794867	-0.9858193725039448
Si	9.364907257731847	15.140209765019975	6.7844553863253445	14	0.5414313287432749	-0.3642893712799687	-0.7135902269856021
Si	8.201650840281197	10.85373914655676	8.276285781001366	14	-0.09609120468255422	-0.07515829360803662	-0.1344477251801193
Si	9.53472427762731	12.339539758974817	9.592711776026583	14	0.014887728245785435	0.1515517462118724	-0.5256635111464029
Si	5.479843176647932	13.524998227945957	8.136519360728467	14	-0.2726909160338412	0.5995511645052223	0.04675066514678453
Si	6.702709235007469	14.994544644712114	9.53542884457593	14	0.536327684682781	-0.7035143223464739	-0.46704693783660284
Si	5.343763443896887	10.87082899138028	11.09868266550864	14	1.464900883012565	-0.18051473342227647	-0.9768253889835349
Si	6.858631539265017	12.163037545706393	12.3505834362625	14	0.06848910351810453	0.6176949405284432	-0.27019617254170153
Si	8.118118693674957	13.674005944940298	10.882741088395335	14	-0.4345900756066496	-0.48920755170149116	0.40361057049365334
Si	9.40618177269872	15.107848841217049	12.215191885182202	14	0.8734764682032665	-1.3658727047228056	-0.2724155506540534
Si	8.257180546999232	10.88577236480219	13.786195942549739	14	-0.8891843790461793	0.39237689712886237	0.4374054359322117
Si	9.507311707742602	12.27029557467549	15.195542848403512	14	0.5843286783467536	0.1910351821712584	-1.7029255860148493
Si	5.415956978213697	13.597142606429143	13.549363136145933	14	-1.0556516214412948	-0.9935532573069502	-0.2664403018900292
Si	6.694795145793893	14.874522484278472	14.879339755973692	14	0.6379035712342751	1.6682881693628786	0.4442420049784854
Si	10.832765990876888	-0.046681656665590106	-0.06051083119200571	14	0.7869011814211124	-0.3932495302745206	-0.6552770441035798
Si	12.204164593172393	1.31409928556698	1.2978123193593296	14	0.0999226658306389	-0.10445552451005996	-0.2085984026131899
Si	13.76925356522709	2.618383789686895	0.016794909821772504	14	-1.5722319317126785	1.4490672451194968	0.5380773218531418
Si	14.934885847969603	4.196466287096389	1.3722670220228752	14	0.32927528769859615	-0.39493360425921764	0.6698631816953118
Si	13.58382137551685	0.017401165103143802	2.617646452182525	14	0.22315342983054817	-1.1489102393926418	-0.30276564918467735
Si	15.027642906019413	1.3077909535851435	3.915016369039232	14	-0.3223240473550438	0.2958984839850939	0.7480396958386702
Si	10.969566675854429	2.5684086921684504	2.8460899963143804	14	-0.017942201366121353	0.6120598489982748	0.11298748040443934
Si	12.335984153675964	4.10046494402735	4.094779252604759	14	-0.5829531370004744	-0.891455436375466	0.8736536173598248
Si	10.970402325026049	0.10185088727037842	5.548300867609264	14	-0.3984195088522744	-1.1423271813309346	-1.3557548910669588
Si	12.303590459317288	1.3816394009673179	6.854354981739668	14	-0.06944041248655933	1.1141658647593526	-0.770815832317202
Si	13.703089813168246	2.646615623465348	5.426033924106759	14	-0.07178037543842608	0.33347621668118604	-0.559452720153257
Si	15.134753467487633	4.1064455704516885	6.720716655391984	14	-0.43973485735226586	-0.38327878384298636	-0.23636119786014886
Si	13.722457211616378	0.19603346449530362	8.036618321525204	14	0.6275988382216536	-1.1969294879043875	1.7000611175776723
Si	15.140209765019975	1.6066256514675699	9.352601914047797	14	-0.2999623730541199	-0.36181159708294197	-0.10415933317717889
Si	11.030913156218054	2.712140349687073	8.228965098498655	14	-0.7760788849075451	-0.0582321930644378	0.6467761985835742
Si	12.310128185189372	4.204773622978963	9.525925383408488	14	0.990041641660692	-0.30312894636641424	-0.5573125320847656
Si	10.668077562956269	0.0189741517791342	10.763374339076686	14	1.1261379595720904	0.43469034871413537	0.19071250845357982
Si	12.138492399449794	1.522520020135708	11.97552442570604	14	1.1975599229288878	-0.6744618606709287	-0.06954171403617315
Si	13.812101066869955	2.8931812849268432	10.811760064641268	14	-0.8748255271647484	-0.4094778328342312	0.20718789423455672
Si	15.063821599567191	4.237708031507513	12.284026437534656	14	-0.8174996487256627	-0.8240675372659809	1.2340493067429612
Si	13.562405817334355	-0.018253199552638603	13.416478532580495	14	-0.0827643944766307	1.2136889808232407	-0.7574250015888068
Si	15.109241589836415	1.4763954629178648	15.016222367340607	14	-0.0019278147690470298	-0.6619534332884083	-1.681713452902564
Si	11.001616279377732	2.693936305968059	13.575317416299775	14	-0.02572056629116534	0.6249341446678521	0.6839381835493984
Si	12.230020561658987	4.064646726592819	15.121596089354089	14	0.8927875260418348	-0.06085960559109711	-0.3441673868234258
Si	10.94743016544544	5.438486735291685	0.21685915267430153	14	0.5371383541902237	-0.22904383211900745	-0.04562426390602766
Si	12.224089091068272	6.9146528043193	1.5910760227642897	14	-0.15942369937056977	0.17387331126980196	-0.49719031949948705
Si	13.562045341221108	8.24664481332567	0.10022874476076331	14	0.03375218509024391	-0.8930934875749323	-0.02269823198733127
Si	14.84111290269155	9.605574219158378	1.4475737591359155	14	0.8488553065469966	0.015308103965629647	-0.1526683772524127
Si	13.569009084317939	5.532079442513113	2.8803352270729214	14	1.1443928073451417	0.1649094096816377	-0.9743481290075722
Si	15.092626918071264	6.8809646730085055	4.055225191814751	14	-0.2551086694125406	0.5581129171709277	0.9257429255933647
Si	10.901649699062968	8.265455112326057	3.050332485025009	14	-0.46342836420902644	0.14770691531612296	-1.0028606585658864
Si	12.311307925196365	9.695676862192453	4.282275987327241	14	-0.1269552671666758	-0.2060218979718695	-0.3187617809339786
Si	11.0521648616218	5.453380952879969	5.570453763296129	14	-0.7522424245949842	-0.8917667972297361	-0.34047553669422514
Si	12.353876877115356	6.898628002557648	6.780752313525617	14	-0.1190187792644427	-0.9403126081110479	1.035446333172379
Si	13.621294506016744	8.320378563762722	5.629588231146643	14	1.9021039729560807	0.31974240050308306	-1.3265826158834946
Si	15.061462119553205	9.669607885093487	7.018928712715164	14	0.4599835973010921	0.06457690966296721	-1.8335878728321147
Si	13.789587695069843	5.45873893874506	8.030162522042493	14	-1.1755569178201246	0.06631909062789955	0.4444374089828167
Si	14.92634911819678	6.787453892176452	9.527908002031351	14	0.07082289581720294	1.2656728737386547	-0.023843659407457238
Si	10.92278670752159	8.104387830815789	8.15434654305636	14	0.06966538420207227	0.6027210802544328	1.1961800107035643
Si	12.303328294871289	9.612111945030463	9.583470479305138	14	-1.2873511482454831	0.05205022743267375	-0.3764702398447023
Si	11.072630073687549	5.392984818633087	11.051886311897926	14	-0.7608782531442977	0.5096290699278313	0.27786346571691517
Si	12.395642950418475	6.741755352183355	12.477094166734602	14	-1.320202675142079	1.2095171053307683	-0.543203848750985
Si	13.475072286261138	8.171256149823256	10.944808520985454	14	0.4945798762679406	-0.9498652928175261	-0.5750608721097479
Si	14.93159240711675	9.498955216026404	12.064693107901245	14	0.5234981262457742	0.08906488806365356	1.1561628132797155
Si	13.714051564066555	5.530260676668999	13.813575741878697	14	-0.42032943994844824	-2.0629440942475203	-0.1666022254244232
Si	14.989874840517768	6.778409218789506	15.139947600573976	14	-0.13433382521443676	1.9442875837226863	0.13237232896569578
Si	10.989294550415808	8.18306993517106	13.879886961438418	14	-0.2615204918599259	-0.20281110164806862	-1.1005086675197902
Si	12.324383376940535	9.631086096809597	15.071113048221521	14	-0.24288794871534478	0.6318992689801334	0.30355857806541103
Si	10.804632468765684	10.956687847444758	0.143862739741622	14	1.8277717754874077	0.017497657256267753	-1.1356217386559884
Si	12.210751474878103	12.4201717113972	1.289210048475007	14	0.4632794972109899	-0.6341556710090953	0.8255238113193129
Si	13.687245249463219	13.604237431748974	-0.1584947928839077	14	-1.0249711358770317	-1.097100410307402	-1.0156737619288443
Si	15.088022654988418	14.959889782006702	1.0275043902571042	14	-0.8507635809156104	0.7556452824862002	1.6640059934521718
Si	13.569025469595815	11.02822597064657	2.798785699089544	14	0.17516991968275264	0.5702984137252375	-0.009404846150569659
Si	15.128215741615548	12.390596284833006	4.079098541678481	14	-0.9093027639552739	0.16802198978220897	-0.11893316145728178
Si	10.720805387157696	13.542448548882726	2.7138444185860626	14	0.3543386794699316	0.7816034189089472	-0.3203946899228046
Si	12.145275904490003	14.97974873879108	3.941249198916947	14	0.5156786236356077	0.24084391998582708	1.1784746081374287
Si	10.859031591310352	10.928292160887557	5.601733258759313	14	-0.4869040984451705	0.6759425602248019	-0.32007690130523436
Si	12.169591656856355	12.413748682470239	6.980046448318026	14	0.15608537622288948	-0.4560449210611572	-1.050708157242246
Si	13.59014609277656	13.69160373337794	5.499505510097812	14	-0.16396864224499552	-0.14272308476354792	-0.851119679002451
Si	14.988056074673652	15.075258523523871	6.774558678488905	14	0.6232549557832634	0.7147855338489391	-0.8806249123248744
Si	13.643742336705357	11.009350130534685	8.21149839228401	14	-0.8400364152988885	0.06495100548704875	0.16476234245732524
Si	14.977618652667342	12.446044065161669	9.368167928028951	14	0.06911053967398433	0.0932012823027078	1.3102676670744948
Si	10.72924380526327	13.850557314042346	8.108516920840264	14	0.6157164749845893	-0.5530748362960975	1.1419137475954548
Si	12.22181153744366	15.220333773828237	9.419765168057012	14	-0.13597624729294733	0.011314920292907666	-0.24090768339776672
Si	10.86845312608842	11.010857576099175	11.001632664655608	14	0.9176053772550962	-0.18557004070275163	-0.3226814309945444
Si	12.31473244827222	12.38672935925453	12.325038788055531	14	0.06612342951303628	-0.13709982031785206	-0.8605844319069801
Si	13.556326879242766	13.835073226450566	10.760539686004329	14	0.3981575132201513	-0.6393963549831532	0.4432346459140514
Si	15.183155578330087	15.161723634869718	11.957779169767523	14	-0.28519445831625334	-0.16004076464740533	0.04795111422076167
Si	13.720998921885512	10.899486842383482	13.542481319438476	14	-1.3327134165193877	-0.4626277220123324	-0.5125994679041983
Si	15.016320679007856	12.131037098016714	14.86845993146476	14	0.22448269128106474	1.9780477392394225	-0.06845310804362247
Si	10.79394926759125	13.625620219375719	13.574252373237908	14	-0.13421221193279373	0.06650009644243797	0.5999609986932539
Si	12.340834195926934	14.914224012569354	14.80155884190154	14	-1.1683886761875517	0.5933067210141786	1.036799248791841
H	3.238930310420683	14.931500649560649	15.074830867771336	1	-0.17268931726987377	-0.1336275425829921	0.10801290583101684
H	14.995965248303868	3.138953898939193	15.192890071915567	1	0.09560655132970632	0.6117808840710387	0.1815097511811738
H	-1.8883115175261258	-1.7764623336964835	-2.6742149855178297	1	-1.1347925571902406	-1.333657783503478	-0.3291405617798204
H	-0.7792739845635192	0.919818705535474	0.836651950625844	1	-1.0110239179573566	0.7355436097616865	0.9888396499235228
H	12.2094160747313	1.3434617035188008	4.244573462937096	1	-0.04528847755121632	-0.09396155814587558	-0.10397627047838436
H	12.222311288418846	12.27029557467549	15.195542848403512	1	0.12349764473214067	0.1838718256387938	0.10162885132108915
H	6.726623548065886	1.3944854588212396	9.51856839364266	1	0.021099518699263197	-0.024462524458016884	-0.00020954508359206843
