225
config_type=interstitial dft_energy=-23349.098653826593 dft_virial="-15.227211675142911 -2.2497498416590456 6.543258067302789 -2.2497498416590456 -9.160561294223905 1.7125564324298659 6.54325806730279 1.7125564324298659 -14.54057348289509" pbc="T T T" Lattice="16.3852778749 0.0 0.0 0.0 16.3852778749 0.0 0.0 0.0 16.3852778749" Properties=species:S:1:pos:R:3:Z:I:1:dft_force:R:3
Si	0.6672576708995528	-3.698435766088804	-0.6488406185681652	14	1.308620359895876	-0.038089639765333715	0.6036425644011738
Si	-0.0930028372179324	-0.1014904111571306	0.029886746843817605	14	1.0999060004327474	1.4088880680604787	-0.26072242076855195
Si	1.3494587152210142	1.276790007845833	1.4046279458258026	14	0.39145387031892925	-0.007319165514865536	0.11130366353027438
Si	2.643158329833744	2.865293541983763	0.12185731155563131	14	-0.3740546863964231	-0.93600857780512	-0.824572502350858
Si	4.0476224228807975	4.253306816044417	1.295764159624967	14	-0.01762441274855105	0.39629397608410794	0.7811205653298235
Si	2.914301908107589	-0.016876836211147002	2.770570250588966	14	-0.39089388358020094	-0.02425323648495683	-0.36447500508408337
Si	4.15540478074189	1.5675467637359335	4.026501799700052	14	-0.1940181785636942	-0.5957209889097977	0.16011249848583745
Si	-0.041127047465999	2.5734062019202946	2.813532449176954	14	0.41189184361931835	0.7758963364298146	-0.2971300434334448
Si	1.2405293879086792	4.125370566397199	4.1485885051459315	14	-0.02609620477843897	0.08639942317825604	-0.30781041493333994
Si	-0.0005079436141219001	0.05926555007351331	5.71117052968577	14	-0.6166425871209067	-0.6900090774313321	-0.6301169787722066
Si	1.3940758268743672	1.372922433137871	6.954256020942934	14	1.0107603796620412	-0.25159859642947446	-0.22623978465685393
Si	2.6592814432626457	2.750301661857715	5.4206759382416685	14	0.3244683491920473	0.19776556456781003	0.6137686055940451
Si	4.024158704963941	4.197187239322885	6.80480590144597	14	0.18363271284402005	-0.0435830633923621	-0.5425374182520026
Si	2.6505808607110737	0.05035195890956771	8.505515818471215	14	0.3189461291854332	-0.29490835132630483	-1.0400385843846955
Si	4.0954674342755055	1.5250925087620673	9.662300051161282	14	0.41988078207008245	-1.0555233232858192	-0.29753679229509217
Si	-0.012878828409671401	2.4876784280788176	8.288328960239417	14	-0.21656548666873277	2.8036913640666543	-0.8938090261855296
Si	1.3784606570595872	4.063565298253075	9.476949787840413	14	-0.909875349110071	-0.46430254001787674	0.904511252080646
Si	0.0038996961342262007	-0.16114920789964152	11.030487138993307	14	0.05555412976297156	0.9064166982334078	0.33837417231606814
Si	1.2863426248468997	1.395566887160983	12.48433645955531	14	-0.17259598614675242	-0.689694631250678	-0.28306506889010674
Si	2.667146376642598	2.647418502081218	11.015937012240395	14	-0.9219693143149835	1.4169775367292607	0.2201655483380041
Si	3.908429487333522	4.290009838484194	12.136362313326057	14	0.6987114976084372	0.08768137629088188	0.7271178405170293
Si	2.849416207722985	0.012600278685798102	13.75095120984083	14	-1.072273817336052	1.3961371854462683	0.6884923824029767
Si	4.131908292269284	1.502054808069958	15.147730607564554	14	-0.9371501485672658	-0.3033837429036409	0.43927282972623527
Si	-0.22084077519790224	2.5911023020251864	13.939414675957929	14	1.3388586153450734	0.4189220168961992	-1.0959503548976997
Si	1.2162464060980773	4.093091568983645	15.023546586550687	14	0.8316268440177484	0.14758170248703176	-0.20767923246123698
Si	-0.0369324163300246	5.483071076389287	-0.0014419044529912	14	0.4252492499785516	0.6908266889231391	-0.4857208757768383
Si	1.4271413176259151	6.870871341837567	1.286932494850396	14	-0.8739991739148528	-0.5395886175603248	0.7562026981196084
Si	2.788528515139857	8.250954141406769	0.0900043313668257	14	0.5032190472541702	0.8916187015632955	-0.1838247744114351
Si	4.164859086075707	9.862118514845687	1.3423147340675579	14	0.023228393904345807	-1.4491361507420766	-0.2842470060057788
Si	2.6443380698407366	5.563260626309048	2.821430153112656	14	0.12522697017047227	-1.0017915929737686	-0.7990085163736897
Si	4.119095004971111	6.850373359216067	4.016850871031735	14	0.5356062325299474	0.6952962984116845	0.5669343795243558
Si	-0.0654100292766008	8.02323154950141	2.734965041766809	14	0.6669560329098203	0.6249547135104133	-1.6958041384991034
Si	1.2889642693068835	9.341083063701742	3.9807541038733305	14	-0.05685510905496649	1.5959850882128666	1.0896676019373859
Si	-0.14602559642110882	5.542811799521173	5.497801441198822	14	0.8592484855826311	-0.8000300165173846	0.05126192654151636
Si	1.3674497503276546	7.003002222620761	6.652750522766898	14	-0.9600995775443756	-1.14961317958717	1.03942151910786
Si	2.782547888715518	8.23784591910685	5.384497244693889	14	0.4849963382976207	0.21913504932568875	-0.30967498051151127
Si	4.147425150416813	9.540295272104776	6.824435464340101	14	0.02375058539486788	0.20507624543511904	-0.7989516949461145
Si	2.5487955145521948	5.515989099639961	8.082660952353672	14	0.26407025700591674	-0.20539017739470913	-0.4366392465468076
Si	4.070152179958785	6.6936481763426485	9.368167928028951	14	0.01000339946910013	0.5137099282919704	0.4420344539506063
Si	-0.0515316989165605	8.078499091773446	8.22727741487754	14	1.3398500335565227	1.1262060938630742	0.07572445099953325
Si	1.4868001143684262	9.562366241402266	9.599036493286293	14	-0.526830021630154	-0.42336231578409494	-0.9733942489337971
Si	-0.11137073371569531	5.405945573432133	10.910956536895911	14	1.455008041072231	-0.7033263745475711	0.8027006236134224
Si	1.325749218136034	6.914554492652051	12.236099499750575	14	-1.0019749127830953	0.17634722880884846	-0.5106713960246194
Si	2.828279199264364	8.093196686027232	10.80445223070906	14	-0.18341365467074344	0.5266258758677342	0.8464670068151111
Si	4.032056408899643	9.609424759458978	12.273589015528344	14	0.017281941519907328	-0.021687016264917033	-0.6025411028820226
Si	2.555972266261401	5.634045026728615	13.644659912266352	14	0.058611945320223666	-1.6776187105696958	-0.2375814444450912
Si	3.9845391030624326	6.862039677062997	15.02436585044443	14	0.9538839304329175	0.6909241338147728	-0.6865550545442451
Si	-0.10388266172686601	8.15023383830976	13.776315619991175	14	1.520623163063474	0.6363840479900676	-1.0261641287455805
Si	1.3537025021906133	9.514554000563308	15.135032017211506	14	-0.046134885422609066	-0.21723988759420762	-0.4686793326043649
Si	-0.19685272838904863	10.611286189841866	0.1023424456066254	14	-0.16136436966621753	0.09311643582714291	0.5021080726453342
Si	1.2626331277619192	12.31045589074687	1.565646071502445	14	-0.6329331104293648	-0.13962233174744934	0.03772042904136045
Si	2.799834356873538	13.515101520109518	0.013403157301668201	14	1.1513396768096495	0.45389830522936564	0.808771774605888
Si	4.359680040008268	14.908259771422891	1.379345462064832	14	-2.256724702679633	-0.03758441756992462	0.8356354543223912
Si	2.634965690896294	10.869632866095413	2.785169533175502	14	0.597064134329043	-0.8442057196860407	0.12661973792239647
Si	4.000793298714333	12.251747440121102	4.138904805921865	14	0.31008147226262667	-0.401832908275303	0.8930315239367168
Si	0.2623938398886486	13.802859770148512	3.0726656187684975	14	-1.0298860608070268	0.3321305001566206	-1.4133309380536947
Si	1.4862757854764292	15.217777670479752	4.347456622713592	14	1.0355517484905052	-0.11918692955238039	0.2093010856971864
Si	-0.0834174496611159	10.876793232526746	5.443533400877153	14	0.3808364908993777	-0.7537521776389753	-0.16448414886168522
Si	1.253359060484726	12.264577112697149	6.772592445143917	14	0.22755670480183382	-0.5881704239161188	0.601683896368285
Si	2.7558726563351814	13.595291070029278	5.669879629441022	14	-0.05311672191947118	1.0445866125855054	-0.7337651762117401
Si	4.004512756791936	15.10334288980145	7.008655143487601	14	-0.08124101457444295	0.23037952133282438	-0.1183695751711053
Si	2.75359510271057	10.93743514594175	8.070798011172245	14	-0.26577952782275116	0.2668956446422275	0.8678868852372646
Si	4.143951471507335	12.312471279925482	9.562448167791642	14	-0.3650912990293229	-0.51960804389639	-1.06470114083662
Si	-0.073242192100803	13.456704389763374	8.307221185629176	14	-0.08293203054350434	0.8045469343438206	0.4116565874825248
Si	1.3897173429596437	14.871523978427364	9.771049140416993	14	-0.7016651834002234	0.10748557212985448	-1.298371934089766
Si	0.0705386212514445	10.839139863970225	10.989638641251181	14	0.16848838828728385	-0.21659428304831843	0.06671581217879839
Si	1.3214071194991854	12.189155678638986	12.46106936497295	14	0.7214518957230189	0.7635712288566208	-1.6767571331769142
Si	2.849170428554862	13.597322844485767	10.93646841454713	14	-0.14956942401003823	0.2665493167556035	2.110588218493056
Si	4.2233545280891	15.265098352982463	12.40137779767469	14	0.06483916240562232	-1.4073250931363608	-2.0307600262920347
Si	2.688217843989719	10.96532288888483	13.7678116607741	14	0.3549146070616448	-1.1416592081687602	0.08325727536650308
Si	4.242787467648731	12.365903671075532	14.78928626877324	14	-0.5389412132407115	-0.7036799015290914	1.5187601401484947
Si	0.0863995702343477	13.675021832168543	13.759340472112777	14	0.5367282628916601	-0.9314466656355813	-1.6397998081945737
Si	1.5074455644908	15.107701373716173	15.220759791052984	14	-0.027086851658292024	0.037461004514557514	-0.3804279422640062
Si	5.451775195648229	0.016221425096151	0.10807729286284042	14	0.388915675146879	0.9756408807625425	-1.0932753769226176
Si	6.869757142942075	1.368498408111648	1.3847362184856742	14	0.05137865472305108	0.8768340746408478	0.11000062735402333
Si	8.256639832829359	2.7848418276180045	-0.0346876332611633	14	-1.10171708702026	0.6835604881778686	0.8042520285635997
Si	9.603345821367391	4.217423057498386	1.3113137883282473	14	-0.2698369891284768	-0.303854255177228	-0.33495923022984747
Si	8.194769023573738	-0.07489710516616792	2.693231739019438	14	-0.30008501477789096	0.07382877504698805	0.2689239896292923
Si	9.4870103484556	1.4071512786185372	3.9868985830764183	14	0.16657111505004943	-0.42252516389185474	0.45289326015971965
Si	5.472453416326352	2.9740590165173497	2.649433891259831	14	0.23785938093019918	-0.8380656630709952	-0.17129423552316142
Si	6.8294657446476945	4.311589249445436	3.9933379972812535	14	-0.09102227054388229	-0.5865966503496561	0.6471168700384938
Si	5.300621007252276	0.0102080281160627	5.461409739038669	14	0.39294356874142294	0.3687114153200914	0.11997368778034571
Si	6.67803300652787	1.4207019034210797	6.834954812735787	14	0.07129212253812997	-0.5135489770989291	0.0007664464959361424
Si	8.00270079632416	2.6945589465273057	5.334030588839196	14	0.212506482699815	0.26645932806939837	-0.30947314874387966
Si	9.5524859188437	3.945132509773298	6.553209959676881	14	-0.05963858767455879	0.8223919479288405	0.40951768496669355
Si	8.16407939811405	-0.13421181107330593	7.9831531598194045	14	-0.8237075825211602	0.8924555963450036	1.1862943678581268
Si	9.400037293495632	1.166975875528253	9.550585226610213	14	0.3131786257312771	1.045050182874728	-0.27928297296416893
Si	5.354757965350945	2.880875941242793	8.251445699743016	14	0.4655772940356062	-0.3258271783537456	-0.606698580184702
Si	6.91969946990477	4.1193571694171105	9.49462950266743	14	0.12170121344495322	-0.024636331177658892	-0.446109912993573
Si	5.603666721548551	0.2301312277529705	10.946152113771197	14	-0.16826367368230288	-0.2589547858609501	0.6705075006885409
Si	6.7520289214109175	1.665121093480963	12.489301198751404	14	0.1460698925587847	-0.23342525269507178	-0.6698487835055189
Si	8.19032861326964	2.8197096989357915	10.95793312856325	14	-0.26624875454367825	-1.3465621611053014	-0.5650484737720272
Si	9.532659732615073	4.027484916372545	12.327824285294264	14	1.1680775724438137	0.6179517939499259	-0.5660738305737022
Si	8.190525236604138	0.22451107744187984	13.732271993063442	14	0.2093100845658069	-0.43467877874019467	-0.039345881824758074
Si	9.62879215790711	1.4395122024214648	15.185351205565325	14	0.6452160518753083	-0.3454295424250865	-1.553267458871266
Si	5.203652932788618	3.009713381173132	13.750738201228454	14	0.6633179188818108	-0.3211850476982182	-0.8021527210696989
Si	6.769479242347686	4.176050230864264	15.02074470403408	14	0.6903530913231679	-0.07052490471059777	-0.2172036350091935
Si	5.473223524386473	5.594736745106731	-0.08222132437624821	14	-0.06433882531032149	0.29657854134227296	0.17083272211819486
Si	6.778589456846131	7.027039425263239	1.2256679408761448	14	0.5839412127750072	-1.0269503727524818	0.7238067710857425
Si	8.299192399470476	8.139485096023824	-0.15043323616945692	14	0.14443518379623455	1.2189651460507165	-0.3851934859749006
Si	9.77475221321672	9.494989978780676	1.3584050769407099	14	-0.8037789451846924	-0.09361703003297574	-0.2676075837053765
Si	8.280955585195711	5.556559047658213	2.69219946651332	14	-0.9032727506479307	0.45190852682210303	-0.8976731403711801
Si	9.592842858249579	6.819782045423628	4.06531852298569	14	0.5098105899634338	1.2329018224385793	-0.030805698393354213
Si	5.492263217277106	8.32311490516783	2.6870053334269763	14	-0.42071844818338666	0.2352214268717272	-0.3171034180024831
Si	6.97367257522469	9.672163988441971	3.8680397773718935	14	0.045828152557915405	-0.46176614461955073	1.3634934038595405
Si	5.52518124052778	5.623738686945304	5.493852589230971	14	-1.3093945197077728	-1.3908905879299742	-1.0720251914515937
Si	6.893319172526181	6.7666282039974535	6.81213012065605	14	-0.24953605574165166	1.2182220966131936	0.4518118532620654
Si	8.147235332458653	8.162457255604435	5.48180940999292	14	0.5511858452173848	0.8426741122468286	-1.2045227332463808
Si	9.399168873768263	9.644145163275894	6.847489550310086	14	0.34461398781753555	-0.16955102611610104	-0.3774364612240139
Si	8.26319394397932	5.404552824812766	7.995524044614954	14	0.7657402133046978	-0.4523705544481336	0.802226511792387
Si	9.6222052762014	6.8541747436830445	9.40287194656799	14	-0.1478863784674693	-1.0045285345870665	-0.24605246514338303
Si	5.434210177766335	8.107828739169518	8.122804883147177	14	0.16093936595679706	-0.12660482551153962	-0.20589899913756646
Si	6.7184063312116225	9.469084854460462	9.488763573188216	14	0.8156754495010177	0.8316813514505353	-0.7081703369707301
Si	5.5330461739077315	5.490346139765743	10.706451883739284	14	-0.3825110517943901	0.16354929496727938	1.3035820219105139
Si	6.928957151904088	6.91632410266254	12.115782404315182	14	-0.9121579764132983	0.0499275228803595	-0.4821534671451329
Si	8.274450629879377	8.256246586160364	10.667995636566893	14	-0.22021671333387505	-0.06898892639234132	1.0091251566784272
Si	9.419797938612762	9.700821839445172	12.182470485266025	14	0.30090262626969805	-0.3746398699672888	-0.237613069040529
Si	8.108418609173015	5.463146578493409	13.475514688763761	14	-0.3018356803903798	-0.41888602142171716	0.6479151982403997
Si	9.527055967581857	6.861023789834753	14.62566288391449	14	-0.6925488152665743	-0.18739809658537693	1.5647554145522196
Si	5.4778277874693195	8.245776393598302	13.510202322024922	14	0.11761444153857782	-0.5027907011078334	1.235500952806717
Si	6.806739364235209	9.627251941786872	15.012109662594007	14	0.11430877142846343	-0.34327521327733446	-0.32424363458706634
Si	5.580497938633442	11.145626486620229	-0.005636535588965601	14	-0.1344351267640506	-0.14064666010699634	-0.48526219058772396
Si	6.961498313763639	12.475504794780738	1.3587491677760826	14	0.060415061481243516	-0.5836663616162834	0.38028910257671816
Si	8.191737747166881	13.870137721102852	-0.05992096118850931	14	-0.859645721354594	0.25564988708243175	-0.3781941659618615
Si	9.604640258319508	15.049517251982405	1.2865064776256485	14	0.39117979049180146	0.14235824491861893	1.0512385762697927
Si	8.447905181463067	11.045086421579843	2.625970173342974	14	-0.5346958041360831	-0.6179942171877084	-0.32247959922691277
Si	9.659104921975675	12.365018866070288	4.111033448256661	14	-0.6017553730961852	-0.3166717294192302	-0.1930180185941566
Si	5.414383991537707	13.495570268882638	2.833243938460459	14	1.1053426026322006	0.4988036880878799	-0.15455505433633737
Si	6.7293516968320555	15.004146417546805	4.119127775526861	14	0.498493355675738	-0.07939907472308887	0.1928043597420523
Si	5.526541218591397	10.852919882663015	5.366031036528876	14	-0.002685005285830639	0.49623104010453967	0.27807198235837916
Si	6.752078077244542	12.401689117954314	6.792615254707044	14	-0.12751191146848787	-0.5394508063151648	0.49868284613783287
Si	8.21430027480062	13.561979800109608	5.424739487154643	14	-0.365405488099445	1.4571855101678644	0.09723226122363594
Si	9.640147155474418	15.031477061042139	6.725288147919081	14	-0.38444118055822535	-0.5762628638469169	-0.3682892398265231
Si	8.159507905586953	11.059980639168128	8.203502376681058	14	-0.7469526325093117	-0.4099051505384399	0.4548658121613373
Si	9.70753980337388	12.26929607272512	9.574327494250943	14	-0.19943061237313792	0.10429200221169853	0.1261726227072227
Si	5.433784160541587	13.792668127310323	8.28873859218629	14	0.9822496498774511	-0.11324999025762647	0.1332665593960433
Si	6.971542489100954	15.079141834380223	9.747257716942638	14	-0.560739558365991	0.11272882720923244	-1.4144316282412501
Si	5.45054629980761	10.871844878608526	10.78277450808057	14	-0.02518654771617058	0.4662275265710717	1.4564319191985289
Si	6.783718048820974	12.428741211725772	12.177571287181431	14	1.205431618977053	-1.0901967354122721	-1.1660595118780295
Si	8.443071524489971	13.764026661585	10.951133238245164	14	-0.27790357495990947	-0.46659339485812873	0.8286014243875301
Si	9.722761726519662	15.110355788731907	12.53242725011814	14	-1.0525524110883884	0.29813868805053884	-1.0995720138516603
Si	8.106648999162527	11.02514553840609	13.598011026156511	14	0.052714343936868004	0.23221271942608998	0.642659858966017
Si	9.456419034663163	12.375636526133222	15.132213749417025	14	-0.44271991062895777	-0.4580802080325865	-1.2899729043404382
Si	5.510188711272247	13.69076808420632	13.509694378410801	14	0.22574304710900134	1.568253146229749	0.2517580049593236
Si	6.701185404165103	15.205914729298325	14.928266195708144	14	0.9534591838340291	-0.6813948461667079	0.2555586128435665
Si	11.041399734057991	0.08053364075513351	0.09649290140528612	14	-0.9260008074569755	-1.7035035704908188	-1.667605026679315
Si	12.23578817947095	1.4892415207717862	1.2567999688384548	14	2.0828269659092897	-0.49519488466052	1.4376484521716553
Si	13.575432113244899	2.863278152805151	0.0011141988954932	14	0.13193292706648246	-0.23208364993901848	-0.39381928721346543
Si	15.181648132765597	3.976592243293106	1.2416108162484225	14	-0.7272566802043173	0.13085306283202028	1.4442772759080609
Si	13.606285591483337	0.0592983206292631	2.8119758477788386	14	1.0242059749337558	0.7919426047328588	-1.0356656484561877
Si	14.98777752494978	1.3713494464618807	4.269741249752942	14	-0.5212535513012848	-0.2588560554166564	-0.14322727851682895
Si	10.928292160887557	2.672111115838692	2.591839639529557	14	-0.9666828927166147	1.6258435914062783	1.0862619158303177
Si	12.265117826867021	4.158550754093871	3.9544393476062414	14	1.1910424280528444	-1.0997183097443766	-1.5725162959610868
Si	10.950559753519546	0.06293585231749091	5.416137216270321	14	-0.5890654256780623	-0.47772422401011383	-1.12790276626384
Si	12.242653610900534	1.2965998087965869	6.804183260886725	14	0.031505810372030534	0.7777750430872469	0.1167909165045344
Si	13.44197402495384	2.759264408855285	5.424313469929896	14	0.577547388064863	-0.308159828146348	-0.4093449066891796
Si	14.895544795791968	4.001678103719578	6.679212746534863	14	0.5954733914674674	0.1552865337999195	1.7643847733666052
Si	13.571876507946046	0.005734847256215	8.145695116338413	14	0.6067194061377952	-0.9087867431175202	0.96281440765192
Si	15.054957164236871	1.2234067725294084	9.558794250825539	14	-0.9596624896399504	-0.5946316115856509	0.979537647985759
Si	10.755607717363985	2.5926752887011775	8.025722111738395	14	0.005280536106520125	-0.01716392778571253	1.274186574785261
Si	12.125416947705624	3.929451798847019	9.517568891692289	14	1.1664104677542297	-0.7381142008607705	-0.9392134605866848
Si	10.955164016602392	-0.05482513976941541	10.874073276399512	14	-1.4292190833795497	-0.8218360749586245	-0.2755222172123883
Si	12.32459638555291	1.1140678132702009	12.13988514806916	14	0.28965686870990237	1.591027997155621	1.64765376361603
Si	13.61154526568118	2.572996569973422	10.921312032512848	14	0.7918410460727129	1.083350910386846	-0.14180031506414678
Si	15.0050639931078	4.070676508850782	12.460299256912831	14	-0.8366754664243912	-0.34263500805261754	-1.0018574132699642
Si	13.545447054733833	-0.12318451906349821	13.709135980704085	14	1.1423276955519988	0.015553387413171778	-0.270984987653923
Si	14.83870426684394	1.2663525858395215	15.203882954841838	14	-0.850023873915004	-0.4966843259724818	-0.4008196356686326
Si	11.047101810758454	2.6774854869816593	13.570336291825807	14	-0.7282781803480121	-0.7004503361364534	0.18779893190478802
Si	12.150633890355095	4.13487402756464	15.013502411213373	14	0.4817513462730618	0.29640473462263095	-0.2458017823746686
Si	10.768519316329405	5.652330996837004	-0.201047359525023	14	0.2795051164638297	-1.0084355862315635	0.5176717444797865
Si	12.270393886342738	6.753749375587782	1.2407915523546775	14	0.5284775859193049	-0.1939194481194005	-0.33938847336486655
Si	13.508793188127683	8.171878790382502	-0.14337118140537503	14	-0.3854829924339493	0.03591705576980859	-0.09668333023778433
Si	14.731265999818222	9.279097557500995	1.48453894602169	14	0.3635928588487406	1.444465480817496	0.22735872969218238
Si	13.799107541515161	5.47528806939871	2.5461083289807114	14	-0.7912571480545073	-0.9517717674124161	0.14831292484008185
Si	15.035343986620616	6.789452896077189	4.0188662602103475	14	-1.2174926740338676	-0.3256289461335621	0.7858930510250823
Si	11.197371194149163	8.161916541434563	2.6778131925391575	14	-0.9626850810543164	0.6722386259005966	1.4236773229725026
Si	12.437048547608347	9.706310907533263	4.195155464866397	14	-1.28024924113017	-0.51759178310433	0.17110705905585466
Si	10.989802494029929	5.391985316682718	5.237406605210912	14	-1.0936080779510446	0.9480881448202397	1.7526404784852325
Si	12.228988289152868	6.8927293025226835	6.686176489631694	14	0.737913654645799	-0.7440151446810425	-0.15983250511647332
Si	13.812428772427454	8.261817580637828	5.423494206036151	14	-1.0175545254705325	-0.5459963262391978	0.22253250789573245
Si	15.016124055673359	9.500446276313019	6.966086191568611	14	-0.05199469155775856	1.0140976743675933	-0.2712678092391393
Si	13.527390478515693	5.351087663106968	8.12960477346526	14	-0.11128309468771318	0.16314563143201613	-0.24697497773225213
Si	15.032066931045636	6.654290738887139	9.45035648184945	14	-1.3796309464014498	0.1967255524658101	0.5044331231863441
Si	10.86688013941243	8.234323084363746	8.023428172835908	14	0.7172463387508528	0.47259358334375834	0.705757097517239
Si	12.393512864294738	9.426565058375095	9.588418833223356	14	-1.1133976184896925	0.2925393348843204	-0.36628763433478784
Si	10.931831380908534	5.359509695934666	10.762669772128067	14	-1.525673328133309	0.35819533745015375	0.7169774011343653
Si	12.133118028306827	6.767447467891198	12.11145669095621	14	0.5698947501899742	-0.07428694601503845	0.6130114150772614
Si	13.660012917635134	8.042943038784914	10.971090506696793	14	0.9354053964970134	0.20160139659493895	-0.8539185842539642
Si	15.10157327979096	9.461777020528254	12.27009895134099	14	-0.2735350099104458	-0.44455670826967153	0.01301570646218562
Si	13.4608662503436	5.500111765379183	13.60572849203559	14	0.6421775196079572	-0.1753930916245415	0.14538752120681736
Si	14.937163401594214	6.822354534049988	14.980879322964448	14	-0.7329637626834499	-0.9245293638822549	0.4978451800245287
Si	10.795948271491989	8.218232741490594	13.37286092287751	14	0.3265465736223229	0.6791770107175482	-0.21365191011994097
Si	12.092122063063826	9.517421424191417	14.827152645942135	14	0.7890418837106676	0.5784045945786004	0.6030681794726529
Si	10.828849909464786	10.975137670331895	-0.09254404943743522	14	0.4431719109442398	-1.1590501645542417	-0.2689592137721783
Si	12.152010253696588	12.248093523155001	1.3620753791846871	14	0.8189942322482647	-0.36880294666948865	0.2937842640803361
Si	13.60235312479336	13.689375335586954	0.28559539335950707	14	0.6850890102906967	0.7558422291537236	-0.16202437240189957
Si	15.186465404460817	15.102032067571459	1.563843690936206	14	-1.2680056375956248	-1.343395844903539	1.0181785327317323
Si	13.633108291364548	11.070876848954935	2.8144827952936984	14	0.7237013557676165	-0.13699903298930224	-0.82898297641704
Si	15.13948881279348	12.458070859121845	4.129204721419924	14	-0.711763456655637	-1.376507824769066	-0.11166901759626742
Si	10.943612395700587	13.632436494971676	2.7394709931824064	14	-0.05780179003384501	1.2815983000916518	-0.465677052922028
Si	12.334673331445972	15.051073853380519	4.039413398665473	14	-0.8869094650589122	-0.6321535512962959	0.6601834843860184
Si	10.806467619887673	11.034337679293907	5.553855476808855	14	1.0175504117020204	-1.4215417628935876	-0.14014375190637537
Si	12.252583089292724	12.289859596458122	6.884667745808233	14	0.14801210551762453	-0.10863125666051246	-0.14784781188766707
Si	13.556867593412639	13.533780736886905	5.399506159227297	14	0.5788064583401394	1.2560222299194788	0.7235859131387418
Si	14.95594093003885	14.925939486249908	6.921010292134762	14	0.037432465245503865	-0.3141931838906075	-0.3194950601712849
Si	13.60158301673324	10.971614835588792	8.300388524755343	14	-0.029277176280526177	-1.1868497266072788	-0.687161578289268
Si	14.925366001524285	12.079472628544403	9.774834139606096	14	0.8937252081520928	1.2920264461596402	-0.5181206594686844
Si	10.945005144319953	13.706465180410476	8.145039705223416	14	0.08215092874724336	-0.031686816186568954	0.7736232222162717
Si	12.328430540575635	14.93804820659946	9.649339296362236	14	0.18326658744643098	0.22555201398371436	-0.8958042039139645
Si	11.084198079867228	10.877006241139117	11.026046728689208	14	-0.6129263114911646	-0.1830953518321091	-1.2890673610466818
Si	12.347781553745891	12.251452505119355	12.34824034152639	14	0.2495039169251498	0.3884402777731837	0.4024034365458438
Si	13.746658267037606	13.657178264562775	11.052214017455425	14	-0.838967349706771	-0.7568159067384637	-0.592636176746684
Si	15.080763976889838	14.868492702020507	12.406965177430031	14	-0.6500872680148608	1.50117737930613	-0.24337414473138477
Si	13.788637348953099	10.837321098126111	13.662356012371244	14	-1.0760502568302854	0.07456282561589034	-0.09096210667939082
Si	14.846946061615014	12.41050439745101	15.131181476910905	14	-0.37703202635715466	-0.9037687168641872	0.24645150068907004
Si	10.916724154707875	13.563225081228099	13.757095689043917	14	0.4546935481048874	-0.0778525548730198	0.13391499215778463
Si	12.329741362805628	14.886827827962522	15.073275904901008	14	-0.6005322982953908	0.516481322716558	0.8799073168300209
H	13.275879740191552	12.21366641581205	14.700050406938749	1	-0.3824807127516124	-0.016407251489992954	0.04012184141037876
H	3.7843781870704416	14.286649846155022	-0.9807735777578894	1	0.40634802632801503	0.10253902260442159	-0.7187465787051591
H	-0.6751537363074671	14.591263631543926	14.559903848219154	1	-1.3087558571462479	1.7343259810687541	1.474815065127056
H	1.7290892183045723	12.015570044832296	3.3006192430918944	1	-0.6703228953265542	0.7635298340609663	0.4034640174904049
H	17.720063573784042	4.070676508850782	12.460299256912831	1	0.0897236052466755	0.07054110267411472	0.15724134517482807
H	17.553703847520183	1.2663525858395215	15.203882954841838	1	-0.13082169534711446	-0.09531138843895332	0.01681400035164038
H	9.521738944911451	9.627251941786872	15.012109662594007	1	-0.042829472423026704	0.004431557129807229	0.07054675910581903
H	6.699538683738676	6.862039677062997	15.02436585044443	1	-0.13909782626213912	-0.0010927197610629336	0.06099176040455273
