224
config_type=vacancy dft_energy=-23137.22673143429 dft_virial="142.15670155400989 30.937885985860113 20.99264292611382 30.937885985860117 129.95548128071076 89.0809628351561 20.99264292611382 89.0809628351561 78.82573817354758" pbc="T T T" Lattice="16.866878527038615 0.8746851206068139 -0.307102655323134 -0.4660426379378407 16.840289991313718 0.2017789448754035 0.5210102969269208 0.4750631449753849 16.48029743424049" Properties=species:S:1:pos:R:3:Z:I:1:dft_force:R:3
Si	12.687797552124849	16.67951887955506	14.940522221434609	14	0.4119880029582918	-0.6709409890455178	0.6029272829011088
Si	1.4139881274044401	1.3375401748780167	1.3526672611179436	14	-0.6156565682306299	0.7675836958192438	0.10864128397126104
Si	2.6838559179320716	2.827037040967518	0.019821466213210417	14	0.8077585019992176	0.3162318132989529	0.36678128655625625
Si	4.020782901039558	4.36683252457573	1.3830802215493938	14	0.9236479889785081	-0.5150854696382495	-0.4150836137637501
Si	3.016465999522419	0.1938395472955425	2.767660482471323	14	-0.24618667684109474	-0.9769351751807052	0.3310655483330152
Si	4.336000634229427	1.7777696352801433	4.027865857220911	14	-0.7087704329524526	-0.13401757926005856	0.3025026251104262
Si	-0.00987863766958024	2.876796792990915	2.728448304594448	14	-1.1483193993900715	-2.8314351331342444	-1.5962838506510675
Si	1.4134492619091261	4.697804049644275	4.170964207813504	14	5.433032219716087	6.638111854374811	5.419231297689129
Si	0.02549898009957485	0.2404421218557989	5.427061366623895	14	0.37165558802219295	-0.4381767675282562	0.2238913370574307
Si	1.4054270918864111	1.6227520529165935	6.8965712216144786	14	0.18070113855798722	0.8060890833148455	-0.34143044521012816
Si	2.7862133343052835	3.104757168311056	5.3907394673127955	14	0.024824021866029704	-0.34763503656870953	0.4065107772947804
Si	4.272466872021735	4.484776498708384	6.720627414310648	14	0.03950606168620329	1.1205301217583152	0.46809003526498694
Si	2.9286309237862413	0.3262264680894332	8.166584286225486	14	1.0584487269190839	0.4487337259727841	-0.15546985360924603
Si	4.328645711450126	1.747050923580192	9.636817133165895	14	-0.30436256269902134	0.3331010924149765	0.5263852204097683
Si	0.17635429105104436	3.2027867683864795	8.386988719976538	14	-0.06690324575663718	-0.5159727580842327	-0.5970371377231815
Si	1.5114129818769728	4.646253710081591	9.787554197770431	14	1.0437422615983687	-0.3041753862317146	0.12399721049584543
Si	0.40870160584244036	0.4379135212357459	11.077128586631392	14	0.8187690034222198	-0.10491935190981469	-1.3954453010046166
Si	1.9494363032920146	1.6397778376415764	12.537671990057316	14	-1.0894554857484737	0.995007217365494	-0.41133185688059004
Si	3.095772135177592	3.3389710861504827	11.218932984341821	14	0.19238655512752822	-0.3104008035433891	-0.7142090920361618
Si	4.735222261514808	4.782666074371824	12.453365723160358	14	-1.1877203028686811	0.3293200249311667	-0.8211555033803813
Si	3.3126460708558967	0.35053960625261177	13.835668897287041	14	0.527854864210765	-0.08492849382459933	0.4540044918790877
Si	4.7322880628773145	2.1516730304534057	15.063908905993287	14	-0.835475274460946	-0.9124881063364053	-0.018334552037975953
Si	0.4288119309888755	2.9192168253367594	14.051424560370057	14	1.5765981827673539	2.282726033671758	-2.6852544259361615
Si	1.8789462774175423	4.59198539377295	15.134730021639175	14	-0.26605515031307103	0.4683972823507446	-0.924549675614284
Si	-0.057249813484908325	5.50667325354757	-0.10799101018785827	14	-0.015639005220332704	0.8294074659053966	0.7207890647714847
Si	1.2156890035959544	7.161711626877755	1.3926041201781718	14	0.3199987397035019	-0.8247805047712581	-0.8840197997895979
Si	2.6738995755202204	8.396603837215808	-0.02009174357763122	14	-0.0338041214177109	0.7973226426152686	0.5622804217843558
Si	3.986314090908268	10.027340897017508	1.3216411089159634	14	-0.05154860478471286	-0.05282130191818617	0.13454594140334897
Si	2.8396319661495273	5.927032259964184	2.605284598861417	14	-0.9503612590337825	-0.30300476197945114	0.7158728542888296
Si	4.209732117272612	7.256328975227366	4.030771338888435	14	0.18691421456412505	0.8670188800811826	-0.11632477510999156
Si	0.013498665119291329	8.548136530811858	2.819484477865484	14	-0.919720882712514	0.40822364765906305	0.20686727740113423
Si	1.4005941947638618	10.027597660513708	4.210995663951279	14	0.09411351047029634	-0.16046756813054988	-0.2926090118384964
Si	-0.08378260450339274	6.01527444098052	5.453367800349677	14	0.3405002193052986	-0.8345735878251699	0.8870511329620524
Si	1.512918088950091	7.240490721672308	6.93584252266482	14	-0.4108158360428364	0.46961778604621895	-0.29184873599532857
Si	2.887736269315847	8.627598075951571	5.517261369298755	14	-0.28037080762512356	0.1603634383650839	0.21567871244381367
Si	4.129317844423314	10.109907253381007	7.040203370001802	14	0.5511850738857886	-0.22306087003902286	-1.0580949428270314
Si	2.9480959617251217	5.956249243058073	8.324329980736158	14	0.5328397232054681	-0.212280482542174	-0.2985588066598511
Si	4.464921247824621	7.585660254540584	9.586374930797335	14	-0.8765530528293557	-0.5663178284685843	0.3791189925455188
Si	0.2027975526925644	8.69747153158846	8.444753749687372	14	-0.41634319826009075	-0.03740752552389843	-0.746280802689157
Si	1.4446122420268444	10.269131027228356	9.818161420057558	14	-0.16064574572923618	-0.7039362407295101	0.2036724219303182
Si	0.19069757293415068	5.972665214479582	11.228355528958941	14	-0.26046582445760114	-0.1916779585012954	-0.38413547613565974
Si	1.602820786524087	7.477231732869069	12.476746404416286	14	0.6796794046971051	0.09969152346235759	-1.317838800910735
Si	3.072386386221082	8.963701492477059	11.065913765241456	14	-0.6059064226355643	-0.36062014687758537	0.04249368606821536
Si	4.361420220353203	10.41613488573683	12.525276394431566	14	-0.9168250467904312	-0.3540448021318387	-0.07055807196922768
Si	3.128362517626157	6.196216690292608	13.633677108987158	14	0.8395905856363749	-1.1383921046384482	1.109104386826109
Si	4.583892275942075	7.510714030620224	15.10191159266438	14	-0.32387956607373336	0.5295332817637577	-0.5086397086006383
Si	0.3947012383654429	8.795085580216087	13.901221293560251	14	-0.9479066247846373	0.7714701786211797	0.2844696637265036
Si	1.7136277490025047	10.291064035351104	15.265669269299886	14	-0.45188384421102956	-0.2982471886950491	0.062388127703925156
Si	-0.3389092334148793	11.139072780089585	0.09944179930452283	14	0.26531698597565656	0.9366963484782597	0.26670024063789627
Si	0.9642381468405907	12.851161637348419	1.4139610996679979	14	0.7388112275130627	-1.0107997175734396	0.7208669692626853
Si	2.407102032166338	14.234882078404784	0.13426365924308767	14	0.12472200508559518	-0.15162759381881677	0.0829747108918188
Si	3.857080969110463	15.691423687603752	1.4744474845918454	14	-0.17273688271829654	-0.008703705729765277	0.27750582496688253
Si	2.7025472869152973	11.523800783707902	2.794475375488922	14	-0.6112751476545655	0.03400415341161842	-0.17376866728327192
Si	4.041905077069044	13.01855285530186	4.295923568786405	14	-0.5388183144064085	-0.6510349774358674	-0.1264706138138279
Si	-0.3183546398506774	14.226663957292864	2.944994528968393	14	-0.26177708817087664	-0.11809086735440127	-0.9058947638534177
Si	1.0801482838059786	15.567557260723227	4.360945545731939	14	0.08776288032953057	0.779027942709755	-0.05679597363260308
Si	-0.1299138829094404	11.276297665706608	5.538223068143115	14	-0.2126998298198901	0.4413834500835448	0.11843359569357699
Si	1.272060415646495	12.709875834330974	6.9913389117480484	14	-0.711210154790741	0.25352255454054123	-0.6683207756137549
Si	2.5642615626429226	14.261788190032874	5.7408483190158615	14	0.5185160954669231	0.8497773049148016	-0.5873970354358182
Si	4.040528351744025	15.965388648815368	6.9212914650578155	14	-0.9220155942107461	-0.2641291353177481	-0.406296090000548
Si	2.7055794610973933	11.459522069514524	8.258358654548095	14	0.5072204584639166	0.5978146399719942	1.3563040791633423
Si	4.01843655566968	13.003635234019358	9.779135057868722	14	-0.2429537690115406	0.5585713452495101	-0.8035850838435532
Si	-0.07240899516185995	14.109000395925797	8.339473959311361	14	-0.9236521027470205	0.7869713725963525	0.40381137381915694
Si	1.2847279778701923	15.6937193559678	9.681569997013396	14	-0.8208258876783382	-0.6237802326001697	1.2955033518840764
Si	-0.13296126019328494	11.453091157474836	11.232323538515343	14	1.5859958298230272	1.3143639520705548	-0.6629934453904082
Si	1.2014808603950584	13.102767903588324	12.648500912571592	14	-0.4702173678068775	-1.1630369204636635	-0.036113745326799916
Si	2.5795018275292003	14.282531977752171	11.280581561932678	14	0.9842936786069689	1.4400665767252545	-1.377116919619409
Si	4.151049833756273	15.882423633339348	12.466962363824251	14	-0.9376438007887343	-1.1714238660179863	0.8893088205436744
Si	2.8297229222764497	11.765041913022268	13.870784683859416	14	0.5317549738708977	0.6806258285654516	-0.2568745045464183
Si	4.288224042367467	13.376900098919176	15.067653936724042	14	-0.8570108526225063	-0.8002390473799126	0.4791229053042743
Si	-0.23879511916635968	14.51752125378078	13.953548680545646	14	1.7502226110421657	0.5679098568828199	-0.05998825799809893
Si	1.2366473239732598	15.870202028766945	15.410603816737012	14	0.146961037662748	1.0516800350532618	-0.9428706007940632
Si	5.599214533891724	0.36512613776369685	-0.06068909294716301	14	0.4241994676763352	-0.8235432888912028	-0.1553613529647358
Si	7.12609920564826	1.6497240446522619	1.2679184150367462	14	-0.8738341089532993	0.9233525689772232	0.3473840966894631
Si	8.421457530107828	3.2026144665666614	0.07031096712054348	14	0.2713182029034142	0.24644918669428184	-0.23574027592533311
Si	9.901352792826279	4.724671308901231	1.3801544690795389	14	-0.7494494328857074	0.2021670397653715	-0.731992141982966
Si	8.638652420156383	0.5239765910014391	2.5824546077354977	14	0.38272136820957825	-1.0156768472552284	0.1694720931827725
Si	9.99376906988939	2.0206797273198096	4.08687585204161	14	-0.0297654291808223	-0.2754579395793846	-1.7510332805496085
Si	5.673907372782939	3.106147407504295	2.685680290141912	14	0.28908428355510535	0.7236818153671835	-0.5036633342534916
Si	7.0677311195680605	4.7238976399455765	3.9795436429295274	14	0.5297459121737339	0.01272799977686105	-0.16998554291520607
Si	5.86680770623712	0.4979691516100477	5.259683662538677	14	0.363826572322342	-0.5187243549978552	0.5091058499951812
Si	7.1928053484208405	2.0422613748688105	6.793321889938678	14	-0.1710103854958171	-0.14952288700374355	-0.2857230775700758
Si	8.643909314894367	3.391136306717225	5.314842204916379	14	-1.6954362133277903	0.3385472077041141	0.5113157150178484
Si	9.911535492530833	4.8545632317748115	6.605105801056616	14	0.5325877548840936	0.625140347314528	0.6089981767830424
Si	8.76758485838627	0.7774815557264009	8.093703994909417	14	-0.18238984053226046	0.22154314656853946	-0.05950411886631505
Si	10.09240679403476	2.2275483328139623	9.521045513349772	14	0.029618361956509826	0.4514490703013926	-0.38793351291458245
Si	5.581197169086022	3.252820176241353	8.315116901076465	14	1.3132776600727922	0.4328054714039348	-0.6748079314470206
Si	7.228334997207483	4.870389660695178	9.533677601669389	14	-0.8277789277956147	-0.6590514267135571	0.1846267021607893
Si	5.8450182829642205	0.4543784804295555	11.028924618686943	14	1.1873595767922642	1.2659834632613285	-1.4832467479139495
Si	7.344246823406397	1.9667982454889958	12.353837772945925	14	0.04606289447364493	0.1751285248870983	-0.3121974919411086
Si	8.632706318139125	3.5494681652619846	10.974958675179748	14	0.40024319385585544	-0.10803861688421831	-0.23834146317772695
Si	10.094798748709886	5.103037659054492	12.286915408281809	14	-0.4092513184555262	-0.1199006683892535	-0.172380527520924
Si	8.845243991352005	0.6851700111420043	13.729083329394172	14	0.05299922240634042	0.45416364329840486	-0.47190761244434276
Si	10.121358567464812	2.3436307715991687	14.960495718665307	14	0.658875305999127	-0.3784769875470778	0.5249217472615402
Si	6.164165173339356	3.4844563237176165	13.772905425567949	14	0.023210910388168797	0.06673972345827578	0.19630363408277382
Si	7.437536434203292	4.950069116959956	15.24801171123557	14	0.27079678274448815	0.14890273640052384	-0.7238085708594667
Si	5.44121376511838	5.7898648082871	0.052824021642517725	14	0.04064814666941307	0.011167338847531167	0.009149535392278953
Si	6.829800887967847	7.420245439814472	1.208624628983406	14	0.5850269905517057	-0.479846157230832	-0.08887488338049462
Si	8.157462425176284	8.826218154130308	-0.18488492036557586	14	0.4844240102533557	0.46489440846257496	0.12499582780219096
Si	9.55014931779731	10.551239783276676	1.0031293703472162	14	-0.4612832910404269	-0.4991834403436657	0.9638994140970224
Si	8.441103316034164	6.243728072490729	2.5374044387871333	14	-0.015251796759118405	-0.44276413364046435	0.6042102644558626
Si	9.970687382967855	7.741017372843188	3.8289501631748406	14	-0.7999140596674459	-0.5463565380945506	-0.17693421215343824
Si	5.580453906333865	8.74293894121815	2.618864347190035	14	-0.7032875508572368	0.7116894088224167	0.9178601737923229
Si	6.931073816416321	10.244714845819992	4.082265933744708	14	-0.2105637555199111	-0.2466993552419323	0.5784917550489533
Si	5.777570566673011	6.192875386374956	5.398210947205503	14	-0.2521971497480049	-1.0161982674141545	0.9815428530249426
Si	7.158027408553995	7.6910076142577015	6.975941548143702	14	-0.7683881946739182	0.15595270718836987	-2.320308908578491
Si	8.592960342467519	8.874770104181449	5.374958647697675	14	-0.9178429473866778	0.9711620152948445	0.13615313933897352
Si	9.898832456403056	10.448475261623305	6.670416636935374	14	-0.820718415475956	0.4952414216668147	0.24571924989389185
Si	8.440902297244376	6.225501242727601	8.029555351697669	14	1.7448554286863562	-0.6822497386856572	1.035902190145641
Si	9.851562634599386	7.867517314793288	9.373724078938103	14	0.6836242515898083	-1.205934527177674	0.5061359662398782
Si	5.817029372644918	9.037276058772981	8.332176470472	14	-0.3681365161705063	0.31364399579422386	0.2624471182173072
Si	7.060127879460198	10.521325146735876	9.80387557211439	14	-0.1432172512060804	-0.5428773183753262	-0.11269900238751873
Si	5.9023795858619525	6.287124481815544	10.96812910402754	14	0.038889767740963796	-0.408953070238389	0.12993569245379144
Si	7.25130181624914	7.679370484485858	12.402712366600843	14	-0.05552919004136612	0.34989426681352365	-0.7186445058239493
Si	8.605965751396743	9.068928916613714	10.940657099167693	14	-0.7086948424560402	0.38939338651536254	0.45937193134542886
Si	9.860316242739565	10.5061338696219	12.400281559554585	14	0.04928243255553435	0.9052908112137149	0.17805495696249082
Si	8.69528904187076	6.428183927540287	13.738019374755336	14	0.4075410191965637	-0.4144032992960389	0.49632282856446897
Si	10.200750854029893	7.846577575984786	15.044016491971917	14	-0.7271584639810875	0.9927752408370735	-0.7572275407002194
Si	5.870240228765264	9.08387694409971	13.741409666445287	14	0.05167098939795191	0.054827535399497716	0.4893980706057141
Si	7.196202397044905	10.700255518916558	15.0423525969472	14	-0.012163642159088548	-1.0082854336808666	-0.10551224879664081
Si	5.187720625028112	11.477868834858112	-0.15631829217982493	14	0.04634931560630942	0.41157508344387606	1.1660651683097338
Si	6.515179454213232	12.970700247931156	1.3768165436289421	14	-0.7436976131740042	-1.1265511361970382	0.41316994007396385
Si	7.782158655408616	14.340003080829199	0.14427574636135068	14	1.287852770893444	0.05492678006485543	-1.5533890721529093
Si	9.271294025523204	15.720993720504914	1.2046954717981382	14	1.437311123153652	2.0823297141403727	1.2410031181918337
Si	8.07253283110763	11.79975904048212	2.692729461652712	14	0.7620537624966693	-0.3862905766150079	-0.40181053965901775
Si	9.39964367818606	13.368295143329428	4.022610651716454	14	0.6311953003434768	-1.1440043133312672	0.480019706839942
Si	5.335013342469809	14.396097458581208	2.903148836021943	14	-0.7333946799351068	0.039240466506632	-0.855182539629349
Si	6.802779908459878	15.790100264120257	4.013277636476299	14	0.1202631942393944	1.352636140313619	1.173674611615244
Si	5.414047511527033	11.603042728489024	5.663716226910748	14	0.6617981385270713	-0.07573987763145414	-0.4590860244338284
Si	6.758521990035972	13.139175953809334	7.060651541853763	14	0.4655415556716561	-0.34665570255226513	-0.8780322097200369
Si	8.118836411333497	14.575607237861867	5.583002959727058	14	0.1475631905287267	0.42933936432184316	0.6334995249313935
Si	9.666657443431479	16.190644561257773	6.952473026744338	14	-0.5209725294897927	-0.22061806287435018	-0.8709801820479348
Si	8.339014487791847	11.731873812707253	8.259576591921517	14	0.8053802295780808	0.6986217660327642	-0.41606243355913053
Si	9.768342544860694	13.300442010991588	9.561259406708531	14	-0.6494486054533359	0.04105978063116878	0.3800695301823775
Si	5.312806678515585	14.557368583464045	8.254601799182648	14	0.6559121071176562	0.09742792233849921	1.5003296858820774
Si	6.945503249209336	16.213665435772317	9.606529176015489	14	-1.1002258459345737	-1.0717043175076393	0.47160679312188547
Si	5.529109653261552	11.829758138699301	11.132158747260997	14	0.9933560535288949	0.17862728500675576	-0.3080862945341918
Si	7.000697265491119	13.305018144617938	12.392364122010584	14	0.7778611751154718	-0.5272653097608551	-0.7618809842191554
Si	8.28163460332531	14.716161602761847	10.928068930919794	14	0.6657432425303065	0.3751679750000473	0.3654666804060645
Si	9.770065563058877	16.24250571978954	12.451193368843825	14	-0.8198192999455002	-0.18812674783310687	-0.9927672704105811
Si	8.552884966258024	12.108186054890917	13.796583411924738	14	0.6549841952076149	-0.012437979096748347	-0.6891001917006596
Si	10.026398304709092	13.657571317235483	15.12613013375001	14	-1.8023895666563738	0.4838352271350418	-0.5866385593663745
Si	5.7170858709826895	14.58732207237598	13.73727442276965	14	-0.38857783190781153	1.6279817225905133	0.6263091717930673
Si	6.9907459907798515	16.148271827450703	15.245893412391922	14	-0.5880089585020135	0.15399429626601305	-0.4019858890418518
Si	11.258905317306128	0.575184016158015	-0.22784888590731728	14	-1.116636182750951	-0.00153906364464064	-0.14201988745848743
Si	12.525808502992769	2.2362715347506437	1.068914880847239	14	0.6093432191170063	-1.254723564622272	0.6122434259181333
Si	14.139102537388162	3.253149576779241	-0.3735925762041784	14	-1.0605074109489265	1.3124273955434194	0.5929488231536141
Si	15.57851025091638	4.845552860138434	0.8843069947801945	14	-1.4103232590501855	1.2873606613351676	0.2135362103805343
Si	14.102643810161325	0.9143939331408123	2.441151912382776	14	-0.1349909997342666	-0.04477914158729499	-0.22339537084117414
Si	15.408792958395393	2.5184884017447327	3.85801680448477	14	0.6826999392272152	-1.1355734018759698	-0.6139632382667803
Si	11.371448811850952	3.502679775013689	2.7109529129487844	14	-0.6327055676085317	-0.5534756716155086	-0.22605749328965546
Si	12.66799635671397	5.049826802934146	3.8616114934315666	14	1.1431244810907126	0.27195892234919505	-0.03642382062840977
Si	11.476848537807424	0.6976939885158532	5.196862756879645	14	0.5542408325587846	-0.4039149893635589	1.2073136680714014
Si	12.857602684789272	2.3040570977473807	6.505777180398444	14	-0.11707939452145502	-0.48814105721469375	0.7425115622898198
Si	14.203399833150344	3.8214584124798012	5.291633825480271	14	-0.4764864939089946	0.9969224337184724	0.3366124509507027
Si	15.597662780652648	5.397400115112241	6.636919136082471	14	0.21707225152733395	-0.7900160755164718	-0.3095464252455039
Si	14.33955374471085	0.9726353267064395	7.9521394683599125	14	0.11521688582753975	0.6683693695043057	-0.31857666135092794
Si	15.685462382484745	2.549724018904139	9.378149870780497	14	0.5779885897378003	-0.5817292908680839	-0.46142830138048335
Si	11.509565612770562	3.640068516282892	8.031719259846561	14	-0.37002010792804674	0.2961993033075512	0.3003133289303201
Si	12.811555868059605	5.280074400450699	9.469694503343348	14	0.4616201058373663	-0.6418715580748597	0.2351378659488224
Si	11.475542760290566	0.8085887911377073	10.789124405571645	14	1.0292435415875216	-0.2153907486479571	-0.09955576910145376
Si	12.860727766815389	2.20298856655575	12.256630829598457	14	-0.0021980379381945927	1.6412514542583294	-0.9556163411976332
Si	14.393816993318907	3.7933850404841185	10.816087951139673	14	-1.513154616329508	0.3403423534386415	0.4399595719572468
Si	15.942004589092386	5.050244043615471	12.202729076965312	14	-0.3702579351701605	0.9124641950569281	-0.05345610782173072
Si	14.65060751725511	1.4111350119762731	13.568477762521221	14	0.3111723922499655	1.0935276023545242	1.840151133382857
Si	17.146100382988216	1.6665065797492657	15.975387222065411	14	2.2476772401685636	-3.5846841454620666	3.1256210038655876
Si	11.496664936320053	3.7546289556597032	13.629763154903639	14	0.74598512557734	-0.32928968588838897	-0.32484578745304504
Si	13.151365462944712	5.169990429922106	14.779842328286444	14	-0.4551249795776083	0.4448372158600998	0.43076067134282103
Si	11.11293358048304	6.078456842614465	-0.20815242297515146	14	1.1422004258386511	-0.3725729584004218	0.3308380055121821
Si	12.559454656396106	7.713219345912508	0.9836660216418633	14	-1.2979901249497237	0.3849065506211721	-0.22168481447167962
Si	13.919699819118996	9.182997789033983	-0.2357781480860125	14	0.09315037441736886	0.14079758398928904	-0.23740095285161675
Si	15.198547575079509	10.680489797409757	1.2330289857570764	14	0.24964738460201408	-0.27517126133618813	-0.016614739689328903
Si	13.968772053096648	6.484893186296354	2.257312627570803	14	1.1733578514398018	-1.4267261396611342	1.0688406204020582
Si	15.353918207250333	7.935250511550668	3.6703682980679915	14	-0.6179399668654533	0.8584835817498871	0.21267540431934873
Si	11.069285475362607	9.206125085260766	2.302680372422362	14	0.44638219304697674	-0.09729962418302382	0.37795839560400396
Si	12.390460355824946	10.596313601494428	3.8539288593479055	14	0.14167895889303578	-0.6730981464091221	0.3930433276278448
Si	11.256582621205638	6.328551244847142	5.2249411965759105	14	0.4895880752888731	0.3408041239541401	0.8700157604423472
Si	12.790271525611466	7.729613357298158	6.788622442264811	14	-1.4607290075200925	0.988739376816037	-1.3618892912503
Si	13.904702803860697	9.252707389018692	5.245722147432815	14	0.4172752239386443	-0.11137899691615472	-0.12177988926774974
Si	15.411652830757673	10.694027314900186	6.626334398798342	14	-0.21122067292920896	0.28117119271128566	0.41221914532657317
Si	14.30941106164382	6.673011299633814	8.098732843121171	14	-0.21778624747473907	-0.5852869292995727	0.8353045530676881
Si	15.64633635551778	8.161131440398297	9.407346583072053	14	0.020051279060238826	-0.031726411208499235	0.7999246011992585
Si	11.306580555156431	9.215431072764481	8.081848954012509	14	0.7510843987587895	-0.04697666530442555	0.3191747004483944
Si	12.70925081792575	10.760174321375121	9.519163707199992	14	-0.24689090258828333	-0.6252136238161522	-0.2001474365363952
Si	11.440859417501267	6.6200453823749745	11.007565949963588	14	0.018111894317251128	0.25097458916827453	-1.0418072477344253
Si	13.031968747978295	8.087656538880502	12.283998101979591	14	-0.9899801922435404	-0.35259187051542296	-0.10676849085606517
Si	14.24894832598936	9.522332709297826	10.863391557613898	14	0.3595585374908963	0.10053356045470609	-0.02350144528934553
Si	15.648594860744222	10.990479352831612	12.33613629480989	14	-0.8585514589303391	-0.9230985437715925	0.42633631330791016
Si	14.564995472841293	6.644845019794111	13.44521439201006	14	-0.42737478274671803	-0.10537186644616073	0.2625108816292469
Si	15.814648205743778	8.2407940043278	14.814500332572829	14	0.14154988940596436	-0.3233728012151322	0.2736404252285719
Si	11.507247984370654	9.474290907772028	13.695367917416204	14	0.5474723978034949	-0.9397757613202011	0.2518060846288104
Si	12.968934998894783	11.016684432545738	14.903316852988558	14	-0.5007492434836358	0.15839731412676666	0.417443888447646
Si	11.007998393746663	12.022440561028416	-0.19012661200181175	14	0.9406540508975636	-1.499071129827865	0.8427872408809151
Si	12.302133713132227	13.306651633439154	1.397720808533363	14	-0.4942631160924983	0.9593210468534347	-0.6785704869725252
Si	13.548740757984394	14.881299383189429	-0.03258700398151033	14	0.3509142242940264	-0.17479376697441498	0.03328450103250897
Si	15.060403746423454	16.44092140071143	1.1255616379627833	14	-0.4207012217777417	-0.15727091288600978	0.8532729797080751
Si	13.75852160208018	12.027557249383609	2.65868971683744	14	0.8054488780901286	-0.2446327007855972	-0.5648114178615095
Si	15.18764864035924	13.512270206122862	3.827438299167612	14	0.36472054564215756	0.23704999697541657	1.0976853367677357
Si	10.831630588827398	14.716849120807593	2.7497039300726165	14	0.3431368878111104	-0.09057798354456072	-0.6328958294022227
Si	12.386298084412863	16.134975870354726	4.018112222832375	14	-0.5543881568936292	0.8215545389260682	-0.5418920708166455
Si	11.080071231436525	11.965288723088111	5.249181697697401	14	-0.5219513492851731	0.8329969860428552	0.518652364048891
Si	12.396788224619447	13.570786944753491	6.731487496659781	14	0.12610577396889888	-1.023913640258855	-0.15132317494891123
Si	13.821423590948537	14.887034331015734	5.353458083358001	14	0.3022370299308549	-0.32763286562008553	0.07813151980025587
Si	15.131772173732294	16.42991266581187	6.662342100673302	14	0.9476798532954002	-0.4165776830652882	0.40953439715127454
Si	13.906371766585995	12.148122913951143	8.051397141209923	14	0.7248771222305203	0.5888836485319279	-0.11095322187513819
Si	15.378770210908826	13.668095242112619	9.558298180334598	14	-0.4966997526044027	0.36265903339646277	-0.6713140564274713
Si	11.03237741201742	14.812807720578142	8.268463649510378	14	0.9795775001182213	0.3422382865017187	-0.047040942937429255
Si	12.666568954383122	16.33820924529742	9.489097039641706	14	-1.9471433104017746	0.18493832012559125	0.36609300166205255
Si	11.118646568273482	11.848826206759188	10.902509138413224	14	-5.020962455608615	-5.270489512481647	-3.7562257213170263
Si	12.713310046092644	13.683593959728624	12.24086183461803	14	1.7841835698844055	2.5107766478055926	2.111001138007472
Si	14.046355170553639	15.261792478353977	10.976948592275296	14	0.7422809341426027	-0.7858040907810052	-0.17022157038359567
Si	15.455518847003168	16.910516496757882	12.324536328175654	14	-0.6574496280991048	-1.427729384957056	-0.32033504027937726
Si	14.277901788652938	12.546793851106518	13.639667131076132	14	-0.10376235451574803	-0.7872017436330377	-0.24157462811781313
Si	15.578768703646107	14.00744367624468	15.066525528727585	14	-1.071318651709617	-0.8936447325555721	0.6609378466869497
Si	11.289149354384817	15.044094196714187	13.704109700921691	14	0.42354023627224924	0.019670498362324894	-0.07160759716091213
H	16.3053283146821	2.595742118663835	15.064439325320963	1	-19.640071901966262	-31.797895906825843	33.749880351434925
H	10.23929916313041	10.846664767223304	9.944619131169466	1	-0.22249676953178238	-0.2667776309080327	-0.1912300719545256
H	0.8476438702965129	3.8042332981985587	3.503151071167898	1	-3.1911453658390294	-5.146331865013823	-3.996024744100745
H	13.26888543946193	4.337007417411894	0.555803439895516	1	0.2577121706597226	-0.31762509527194116	-0.34250696700767425
H	2.351151239264177	5.602342994384895	5.105443127597837	1	0.4228966886106161	0.40640587619771834	0.3835433505804296
H	11.925851877152061	12.763608663611356	11.371290023899354	1	3.442522590100439	3.8902718398461382	1.7721343419120634
H	13.951540181881294	0.45956611659290725	12.744836211418804	1	-1.2579826977260917	-1.7470151571552808	-1.6090486172340066
H	-0.4118638510061637	1.9778052911550328	15.098756104434766	1	18.371514762279464	32.42895725258214	-34.51391283658599
H	3.795150289520492	15.567557260723227	4.360945545731939	1	-0.07562032123406724	0.08435642289086638	0.05217338337750885
