72
config_type=vacancy dft_energy=-6856.1047767236905 dft_virial="-54.25581631346282 23.868415603828993 -13.755951584906533 23.868415603828993 -32.95332087456707 -0.38220898976499595 -13.755951584906533 -0.38220898976499595 -38.028008458300434" pbc="T T T" Lattice="10.846572193512227 -0.022061971965547794 0.0092412979914684 -0.0161288851095229 10.893950115609332 -0.041509914804400895 0.006855047336394399 -0.0445252679049035 10.975126024257394" Properties=species:S:1:pos:R:3:Z:I:1:dft_force:R:3
Si	6.934475858767315	9.434763263328524	11.760113547706869	14	1.7633604450070581	1.7324069080577955	0.3877509644368519
Si	0.3603835051825508	0.2776207398488638	1.7983262186768678	14	0.5515267737828363	1.077030105067794	0.34959936103330264
Si	3.1500471880470293	2.9833632411525555	2.1454898952303085	14	-0.6971467229105951	0.6502343352391734	-0.4286904173390378
Si	4.3899766528645285	4.341964205025051	3.6711381668924816	14	-0.772812038487765	-0.09309406721085761	-1.0108503683482464
Si	2.9118516476575427	0.18366645894287975	4.672476190643629	14	1.150093204950442	0.15935016575841354	2.708789552705201
Si	4.3784434695848	1.6480032740010924	6.208107667319122	14	-2.7146372746453453	0.005741021069358646	0.1257519898768465
Si	1.8287064434941258	1.589190872628628	3.4011805456245714	14	-2.7106818862208297	0.8924375986077626	-1.3911764948415748
Si	1.883783277932011	4.421367780232027	6.097529896622381	14	-2.3135312178440484	-0.9019103219387842	1.6719653641917547
Si	0.08464356471364079	0.32812465030411636	7.3248946670815265	14	-15.381987762330487	13.370686375322395	7.79204809044728
Si	1.3446012651429313	1.649049970311159	8.804345126061467	14	0.13131663312124298	0.6729515934058736	0.4365878244404046
Si	2.8912919289453027	3.177714679733223	7.8390698576648195	14	1.2378586563852927	-0.2944913180433768	-0.8346041839784799
Si	4.37609518200833	4.719121967653383	9.207900244231862	14	0.6996543219293355	-2.19796106214552	-2.9383450347829174
Si	2.8048478296464694	0.43256107954220735	10.247676427398696	14	0.14747217340039345	-0.5662075280503499	0.105393977951914
Si	4.292672943766331	1.3775467094143938	11.797608053454415	14	-0.2197037778225055	1.7380103749925262	-1.2002179316088568
Si	-0.012708954057046388	3.102950192731589	10.195891534205424	14	-0.9636253342698946	-2.0125573719569827	0.2017080974657251
Si	1.6652482736215568	4.077749855220148	11.296708009129052	14	0.21651740699924601	1.711614122223226	3.4141262745025958
Si	-0.06779771974820702	5.450503454796009	2.0183808307908486	14	0.9848114992184467	-1.525429330238427	0.12181202808425158
Si	1.3177320827667982	7.002942813358331	3.2629916855298475	14	1.700872558416711	0.3518606481623729	0.526864217330912
Si	3.020446660991794	8.48174139204568	2.2264705651884107	14	-0.2130137617794802	-1.8088875211319841	-0.7240194014957189
Si	4.326401512116413	9.620972163878447	3.6690285043815187	14	-0.06642399172496159	1.7940051922073712	-1.891621319455305
Si	3.005834129707632	5.832112659555443	4.854964709490414	14	-1.5915941545471175	-0.24676440420653203	-3.0903079007354815
Si	4.350102404418242	6.861724499591052	6.164386132021222	14	0.20328675613229602	1.7600840854975934	1.8849554718022892
Si	0.27293067265225474	8.524188452561893	4.72649656683695	14	-1.3555031798561163	-1.277625942372023	-0.0761422556140573
Si	1.776829354252817	9.543282350505569	6.013781175904393	14	1.1174864472803239	0.26885919777522455	-0.33057780965378314
Si	0.4954008212248038	5.881753181137315	7.598061795480512	14	0.39957162114623274	-1.5560187986743568	0.5730952620924945
Si	1.8535332122413932	7.246512841018679	8.994105201449894	14	-1.7039352590740715	-0.5835318928080396	0.8469647728050916
Si	3.1407744349332893	8.41801656830193	7.543276734418179	14	0.5650757274884207	0.5654091998484438	0.12149372524561725
Si	4.316022406426231	10.061972978123894	8.936456639601474	14	-1.1381558200595265	-1.2782967437500496	0.06612060129718411
Si	3.005065106201065	5.816304833624967	10.486006465552379	14	-1.5245435844556359	1.417035643709496	0.36067054054186026
Si	4.418382797594407	7.081417920128605	11.744663659374654	14	-0.3991011088726456	-0.009516946342528115	0.9679460767604035
Si	0.17434055751909508	8.440129519258745	10.463393486617386	14	1.918448746586794	0.0206655161212222	-1.0398249255325913
Si	1.9266783027757435	9.644335727110398	11.613928578598872	14	-1.920683808441599	0.781423441536537	-0.29225111397793174
Si	5.642574939341692	0.15720944713444113	2.1033205075175965	14	-0.031169252685623147	-2.138551817065519	-0.13760684228698525
Si	6.944909197426932	1.377300491733166	3.443918294856947	14	-0.3691425896822802	1.88233063038095	-0.17601067112244106
Si	8.186434196205164	2.972518816584633	2.2544949098134777	14	0.7940323991370752	-0.7801821118879695	-1.1558175138352196
Si	11.095799804543875	3.160383992021054	4.6708329316697945	14	0.741072514642133	-0.133747613201443	-0.10209190738924785
Si	8.439784597573148	0.30371005212454333	4.678035070010564	14	-0.16077815765322379	-0.5252968715277497	2.1627916838028107
Si	9.703154636439194	1.7698419784710047	6.162938111737347	14	0.3034786166899544	-0.4711177688899934	-2.361121863098925
Si	5.658657184097503	2.8186859141271214	4.810351584175028	14	0.6138241414689604	-0.08658917075088297	-0.550147632889109
Si	6.946842060457541	4.256566802036284	6.014961285319266	14	1.5704239304515502	-2.0239890204314244	0.11809292423865739
Si	5.581361102082712	0.4118538471531083	7.613214487140231	14	-2.3110817258055434	3.3321308976272213	1.8502946580919049
Si	6.988460441200809	1.5880997052836257	8.882050124665787	14	0.9142819665182728	0.05116628142360685	0.934290051009133
Si	8.306868266766749	2.8747552119056397	7.4681792569842225	14	-0.5313837062626684	1.9096699645816806	1.236976253039418
Si	9.626829324577264	4.460424195499256	8.914009613552947	14	0.47470677480638807	0.08155880319201327	-1.9977861147821996
Si	8.40778931492616	0.047530859070908066	10.19330245224467	14	-1.6759132964108414	1.051855384436096	1.52801637641156
Si	9.491972538124534	1.628713691432985	11.686702715622294	14	0.9793527855132405	-0.3448381882014524	-0.33007978655327047
Si	5.418456108498365	2.887221202259624	10.143821375592934	14	1.250160881121137	-0.5420131698772245	1.374753816719661
Si	7.055521677224109	4.097376766858131	11.542620901068926	14	-0.8042733687377569	0.3973059631381182	0.1422800833168864
Si	5.597204721773015	5.394189023995652	2.024924580882695	14	1.1062558592419172	1.7772444137358578	-0.6490048326750785
Si	6.947368120261046	6.959031462667415	3.412110658284199	14	1.2394355152781396	-0.3790336318488899	0.5104947610891252
Si	8.585815545047955	8.61960051568625	2.5265502623390756	14	-3.1542371489683037	-3.3145440230163445	-3.1472748528718744
Si	9.924480469356697	10.04936055875244	3.3607086498551277	14	1.8320367249924696	0.6570271954950045	1.0937772566811104
Si	8.538104632518529	5.2213659049613055	4.725257885815089	14	-1.627248957574271	5.522256259199058	2.7441628196997976
Si	9.951316027291782	6.820161436476606	6.154116576929296	14	-1.4688974091222031	1.120890847834732	-1.4383228530971301
Si	5.510043662618272	8.315712579421964	4.9415422218940535	14	2.086918365805241	-1.189719337255096	-0.2825120241357429
Si	7.032031208843684	9.542044754143095	6.1401092855840105	14	3.6735479730896845	-1.676524962366505	-3.209978455198582
Si	5.72752329334355	5.5009921800198205	7.31314780590223	14	-0.2717696889976322	1.5017360804921982	3.157282623220019
Si	7.098146621880063	7.077219203635064	8.837626814743418	14	-1.798558105508289	0.5206459991141339	-0.729422065104946
Si	8.549613953291708	8.290462793513115	7.4672453652505775	14	0.32920509652335606	0.1169212715442659	0.5398069044020054
Si	9.890803964657271	9.778744549235606	8.94725659313446	14	-0.1583479489046198	-0.7849368569565193	-1.3855799698912086
Si	8.279211621674442	5.744422286619028	10.226411680083821	14	-0.4389774097249503	-1.0832051287151936	0.9675138739560866
Si	9.654183349700132	6.9567005296411635	11.582069963034854	14	-27.392984427003967	12.675644873447938	-28.71438318034098
Si	5.512758565068112	8.5268491220423	10.225363899114365	14	0.9313528202913958	-1.5183009407383163	-0.360283332080646
H	-0.611623159380183	6.791357221751086	1.2522804812762842	1	26.665972773136662	-11.280304216429853	29.63358444266829
H	-1.039540812079494	4.478385070316242	1.12886142807708	1	0.08782612952040621	0.5846966035180667	0.33455813779990434
H	11.898636482893304	2.25605031137683	5.604323341340857	1	0.6834087929639798	-0.5224565714805822	0.4123757256405702
H	0.8344946319265397	10.548530571352872	7.0110896900266315	1	15.705330995834439	-13.780000685858267	-6.011124939219354
H	9.272847479106643	4.406197734022088	3.879040255215804	1	2.422248092311722	0.949256969298779	1.93386226587055
H	-0.9214430978411042	1.2296273699439115	8.317839596483147	1	-0.42644172862603624	0.3583992261020415	0.3324423752319545
H	9.132172579693087	3.9634983431739825	3.2410652959878834	1	-1.5439734273599948	-3.5513639060656073	-4.463167069944726
H	2.4413817224813186	3.309084286251379	10.412458966384833	1	1.7481909236181847	-1.6664405730798202	-1.463396272179214
H	6.32183528888056	10.351359018361661	7.002889665048286	1	0.9118409591273241	-1.315093631760413	0.24274062438050026
