220
config_type=interstitial dft_energy=-23280.73601659136 dft_virial="-44.01635073290144 -4.417998028952932 7.858209682934347 -4.417998028952932 -44.618986417067546 17.66001922142432 7.858209682934349 17.66001922142432 -43.270040316086444" pbc="T T T" Lattice="16.3199774331 0.0 0.0 0.0 16.3199774331 0.0 0.0 0.0 16.3199774331" Properties=species:S:1:pos:R:3:Z:I:1:dft_force:R:3
Si	-4.80344263790689	-2.1307362536655363	2.316588156673679	14	-0.6846339246490305	0.6204095135254555	-0.09031984457041783
Si	0.0420402618676656	0.0845538030808911	-0.1013307398821179	14	0.37976382575981193	-0.27595210602191705	1.012247249868683
Si	1.4058681359969665	1.5534333719470568	1.3009306811021333	14	-0.49370364357483415	-1.1253110921011307	-0.06637282672909064
Si	2.873915386014044	2.7967871726652134	0.08677332001179269	14	-0.07470166530317833	0.5983915960058355	-1.2256201950613879
Si	4.156567692391104	4.188016288904689	1.4737102821863632	14	-0.46192761003365607	0.458801917295952	-0.34967340886652293
Si	2.828709048524357	0.1100619278088264	2.4813383288608235	14	-0.31136393959631653	-0.2358220370745138	1.561618923172171
Si	4.18533981260566	1.351963250535437	4.078003321028161	14	-0.12385811369802543	0.05235541763417533	-1.2335320003525474
Si	0.025834524276597298	2.797129892191308	2.725762630876362	14	0.0871350164103504	0.302655605876975	0.3509311935891393
Si	1.4819192308352123	4.176935024227614	4.053001115600653	14	-1.1627759532736683	-1.0114293812663437	0.8423979755354446
Si	-0.0354469909846932	0.0791682105279681	5.420533624607267	14	0.9382953188768598	-0.04205916926911033	-0.6900977805648771
Si	1.4276389858927219	1.4030610998784734	6.62896267361859	14	0.17593790884188087	0.45619430228025787	0.7433610554875968
Si	2.896012635458461	2.7764851207384367	5.346571486880458	14	-0.5558151203463114	0.161979892279861	0.5926901699584072
Si	4.17117407219373	4.1126506331186325	6.884582480153235	14	-0.7413244829635074	-0.5114545547051366	0.10638925282134334
Si	2.6659825535389166	-0.0644802308381781	8.024647143697301	14	0.6833869385687587	0.2662693233862394	-0.09713455922147032
Si	4.200990670964003	1.2724523204813738	9.289526994649718	14	-1.5325710894862021	-0.18703197118778783	1.9372507255719729
Si	0.0496780113063564	2.7586637053814913	8.090775692256223	14	-0.3335155545925843	-0.5193733019806605	-0.8852783558438103
Si	1.1626515123114771	4.105649362799833	9.522804752078448	14	1.1146433190173042	1.0900254997979504	0.5026217794882998
Si	-0.1255822263477045	-0.018767974048065	10.783066049417297	14	1.3324717326192936	0.35500073908986973	-0.013687279171808299
Si	1.4611602195403093	1.3585402014409764	12.053005093373972	14	-0.3446582108290421	-0.6604642490869785	0.5755743218421814
Si	2.6969252307520746	2.8625403617431733	10.804298340057759	14	0.7076512308065921	-0.9617489416072506	-0.8604931576681147
Si	4.054551513456797	4.0959389762271385	12.269016314678485	14	-0.5199847108257918	-0.4709660736761046	0.7391351867834015
Si	2.833262322228192	0.0198124526037834	13.603696709112269	14	-0.5412708917712977	0.364641612708829	-0.3884906714374585
Si	4.2152869711953995	1.4019350214355892	14.928111837740634	14	-0.8353071241730083	-0.7625402156232414	1.2897075662713988
Si	0.093839870240325	2.7552201901431075	13.375200705071435	14	0.6577152232786762	0.5746392108372435	0.9526495427687144
Si	1.4224165931141297	4.230693029892246	15.019552671298294	14	0.13450917459727085	-1.8160017695528339	-0.6159679290848997
Si	0.006821750567035801	5.467486199682296	-0.0090902274302367	14	-0.45373401159940807	0.2137413845850821	-0.07318342761163088
Si	1.4165087612833476	6.764989685523478	1.2547451449664604	14	0.08467729683482086	1.0936196479249853	0.48667141341369713
Si	2.830487926064565	8.192122752115774	-0.0309100372582914	14	-1.2597858138871114	0.048509044075233806	-0.5028791471308466
Si	3.8989078886773223	9.671806146042652	1.3524691698358633	14	0.6558845962907307	-1.077916107961117	0.497556702007608
Si	2.657055525883011	5.571215976247079	2.8020911653309706	14	1.8051882147973553	0.18034966846072298	-0.84901651485057
Si	4.30173389165853	6.764532726155351	4.103609365620695	14	-1.3628711963720646	0.48489555096907083	-0.7718733279353789
Si	0.056303922144195	8.113052461452405	2.7183696810991678	14	0.23965144133834237	0.09113565628850082	-0.7415124307624102
Si	1.3597478797710258	9.43746759008077	4.140198755025706	14	0.4581745675978359	-0.342329817851116	-0.37995742999041904
Si	0.027695001703970698	5.472708592460888	5.437424801250526	14	-0.1960897181201375	0.3272032339210888	-0.6207267879219619
Si	1.4002051038276806	6.817164653377099	6.818176491977951	14	-0.5529509090196665	0.11214775740687898	0.09264618066408782
Si	2.7773174395875246	8.040330642010511	5.406237324375871	14	0.5378790896329584	0.6441025061611522	0.2887947770960567
Si	4.080777717191789	9.398087484534699	6.928923858838968	14	-1.279174261995816	0.4777699896848125	-0.6258553717040612
Si	2.6778471771327803	5.454805577216777	8.21164144512576	14	-0.06660499753950001	-0.9194755992649719	0.05926063519249703
Si	4.111393994856284	6.526587455180754	9.690769959819914	14	-1.064897316172547	2.2673616224996174	-0.827175489376976
Si	0.0328847545276965	8.2206337526914	8.239548606536362	14	-0.41030598585785094	-1.1381964435235847	-0.32308560875087167
Si	1.417569559816499	9.346222596252307	9.6613776804629	14	0.3718846735062182	1.1744297452477714	-0.8678305780307534
Si	0.0576258403162761	5.675206872450793	10.999860629638595	14	-0.8555990586912129	-1.0998723189530535	-1.2386230459969727
Si	1.4331388182876765	6.893264708147644	12.333055906125969	14	-0.17068616911494644	-0.5853285812057591	1.0336527301010436
Si	2.7619603408229776	8.134594831664096	11.060293506073366	14	1.6654257578099578	-0.0754444576301691	-0.9193079631980982
Si	4.095074017423184	9.634106998172191	12.325989355897438	14	-0.16298133780205867	-1.1241214416694982	0.3974430030516821
Si	2.7917116596835188	5.523300522503498	13.722685664577002	14	0.6644070390954255	0.5967630578960537	-0.2393462511368408
Si	4.345340871359773	6.878299288841491	15.082874183738722	14	-1.4648152652054038	0.406712866172944	-1.3594714238072327
Si	-0.1342644543421137	8.166712547252438	13.470721532987369	14	0.3640435736113625	0.6071145850255018	1.0077557859849164
Si	1.2983358046902704	9.600422564750271	14.898588998564154	14	-0.022927060360824453	-1.0460295168911724	0.06842379744297276
Si	0.029016919876051803	10.997771672527161	-0.0240393267589563	14	0.3790513724755989	-1.263092255328822	1.090762121472173
Si	1.4801893132273038	12.282774055654588	1.3247741681318925	14	-0.5089821798292821	-0.49351903821284754	0.1904993638225395
Si	2.687786043389538	13.662775027420091	-0.0555205632274062	14	1.3782590046026186	-1.0888129665289685	-0.09649255422302935
Si	4.097130334579755	14.84538587213225	1.3416000648654187	14	0.6459084505380241	0.7470565051642456	-0.3510183540594924
Si	2.655244008387937	10.908631955787568	2.825347133173138	14	0.2642247804356576	0.3206425444756669	0.21387585339332588
Si	4.213198014083963	12.13411538121648	4.19371196102884	14	-1.6065919261006054	1.0175534970284046	-1.130702185736417
Si	0.08466804292292279	13.481753837732146	2.708594014616741	14	0.09454828437993337	0.9515879333820252	1.000823057599669
Si	1.4967540903219003	15.101658477764218	4.058109268537213	14	-0.6935764860630376	-0.4474502301969662	-0.8163627059530931
Si	0.1260391857158313	10.739475389693487	5.5587311935107575	14	-0.9668101624299621	0.6585850282084822	-0.774444433255527
Si	1.4423922454922442	12.203475285307155	6.6982899377543985	14	-0.3053982039219769	0.12093348139635697	1.2178413159152797
Si	2.7271335089807422	13.575087788672045	5.391190305182553	14	0.7529093693150307	0.2615618866555803	-0.36709778962116646
Si	4.155686413609717	14.824169901469219	6.76884120019769	14	-0.5051221794121438	0.49027738862520487	0.23413847731088086
Si	2.6953748328959297	10.869121290422033	8.225317586214699	14	0.5268220512036615	-0.043860999877470115	0.3467832293761445
Si	4.124466296780197	12.35464723626996	9.590744818132444	14	-0.9559755246108581	-1.5429249306104387	0.12800633502155234
Si	-0.0861858008242011	13.510836037517931	8.01800491288203	14	1.516246370476986	0.5961241382239969	0.028276244979392528
Si	1.3116202663208139	14.958385395879034	9.4282141628762	14	-1.0244476588338496	0.28181782569930286	-0.7589987751552695
Si	-0.041126343131412	10.754440808999638	10.750426094551097	14	-0.43538943225068366	0.17226559911311337	0.8328409199499222
Si	1.258433459866341	12.221965819738857	12.046085422942339	14	0.20399278165320867	0.3320909051346903	0.2686167425435346
Si	2.617871260066138	13.69676954041324	10.755420007645625	14	0.6975017925553076	-0.6763577937340058	1.1210368866169165
Si	4.073042047888499	14.94798957025415	12.187889706858545	14	0.23504864859421326	-0.4855799792052943	0.24306972586147924
Si	2.5835829874791947	10.951765656143252	13.51367571359129	14	0.267703485933818	0.1188573138503374	-0.18256801813094672
Si	4.057325909620424	12.254671054514791	14.775128369282754	14	-0.6307183603065892	0.645524584513726	0.6305167856494897
Si	0.0071644700931309	13.623427561828887	13.492688222612323	14	0.8841231582234679	-0.24642013320416417	0.7927530171297694
Si	1.4415925665980223	14.980352085503988	14.969026021165414	14	-1.041176298488861	0.6393143367234404	-1.2939354918598505
Si	5.555907837414832	-0.095145468434973	-0.0566466416702901	14	-0.7500279315827407	-0.15213024490890573	0.04276853722693919
Si	6.851142846392813	1.2864548611189737	1.294190530422263	14	-0.5107037919516533	0.4210979433286406	0.5891790685332129
Si	8.124933405023702	2.68042573356721	-0.0109670248350432	14	0.2252835905882909	0.7234725273941233	-1.0021672314610424
Si	9.432196237369878	3.9872968864549923	1.3949174311393562	14	0.1305946667473454	0.3712292987601124	0.26271939827071095
Si	8.21138032548683	0.0090249475205043	2.6956849124671587	14	0.017666578875801482	-1.0005055260926308	-0.04250525604215603
Si	9.579924673094299	1.2395675659536773	4.0712468503708585	14	-0.6723455838819148	0.8372871323800543	0.12034084162006285
Si	5.5095427815273945	2.7958732539289595	2.6950321133698347	14	0.34384342755308717	-1.0281701051163599	0.4359735873794212
Si	6.7635698474867985	4.059153747092931	4.229469031584762	14	0.9374303990471619	-0.5848860939801616	-0.688201333280736
Si	5.447216787710386	-0.0212486106178962	5.439040479016402	14	0.7542057206174494	-0.20203025696233964	0.5682297023846464
Si	6.860641073258877	1.3136439435225182	6.9308659361535065	14	0.14009824334220874	0.00620433424804933	-2.2216134313171585
Si	8.26623176963948	2.709752733014491	5.510978939541507	14	-1.0426806522116798	-0.9840666500071998	-0.8511073376969143
Si	9.487520960868085	4.122181499939564	6.756438017348533	14	0.10347619049361556	1.0209445278351479	0.7699902503989025
Si	8.288263739174166	-0.033945553060848	8.043676237384297	14	0.0250392233813261	-0.3365867398975012	0.7186149381127676
Si	9.496660148230623	1.468797968979	9.448304055096347	14	0.6733033206136698	-1.8149944104883997	-0.1882763861627395
Si	5.556201597008627	2.6545585693357467	8.178609810801166	14	-0.21767826105129282	1.1192240002556801	-0.2580926942471045
Si	6.893672707583471	3.904734120620939	9.601662883035189	14	-0.24854335197754246	0.10085829105664078	1.0306841318984008
Si	5.489306009510351	-0.0907880344603353	10.851038755426158	14	-0.06578635760556487	0.21321919309456006	-1.026659323630241
Si	6.82338256477911	1.2487557132485128	12.23492388182074	14	0.3411026292818093	-0.24793657112198755	0.9096362363152971
Si	8.322698891558007	2.5285846635296476	11.00993005571482	14	-1.81245878642167	0.6042997389210037	-0.3909396492548996
Si	9.599573925923751	3.974550984079741	12.14485392636746	14	0.10992246575229082	1.5346032911312473	1.1036729268372965
Si	8.349447334570858	-0.0025948764118629	13.765444005451723	14	-0.3169668923099832	0.9785405733426056	-1.0623699196428416
Si	9.700349786573144	1.5213809362684483	14.994501505938484	14	-0.449182640961682	-0.7097757351326304	0.23058340998471213
Si	5.452227020782348	2.6812906923711646	13.58032650142807	14	0.5672989622587528	0.6272465967927934	-1.190081605994705
Si	6.860641073258877	4.111181835149654	14.754238798168386	14	0.19114933924747296	0.16517166242429282	1.3747304196612475
Si	5.5347897866164	5.479334503298726	0.018359974612237498	14	0.5768866139975849	-1.265991947908885	0.043746842801255535
Si	6.838511183859594	6.872701536581938	1.3165978594379093	14	0.5910899140071469	0.19801650444705649	-0.6185698876688897
Si	8.306232034328008	8.22221679050241	-0.1273611038879124	14	-0.918089259276348	-0.4760771739420269	0.773922755986069
Si	9.485089284230554	9.50158878141542	1.3781568143155625	14	0.8319893698678892	0.5173431572198716	-0.14686076455526223
Si	7.969077620537597	5.4205825845395665	2.7294346257988096	14	1.07165083851698	-0.12664673452825806	0.04955702660372616
Si	9.360910575942098	6.910302764587801	3.926929289929955	14	0.25449803189900544	-0.6879447369697852	0.7815771936346818
Si	5.406367884195336	8.192285951890105	2.544104962068526	14	-0.6561121391115639	0.10783395690073455	0.5751387766009484
Si	6.6176692492348845	9.406900272348572	4.136412520261226	14	-0.04914590686303449	-0.7131868205608709	0.14404129046118783
Si	5.482631138740213	5.40685748351833	5.5185350890930325	14	0.21010095656228442	0.5175452460980353	0.615851200903365
Si	6.742484436643233	6.826516000446265	6.952555186162096	14	1.0297968434524176	-1.2620776971694916	-0.8717044624166205
Si	8.038845524064099	8.125635164053325	5.482875938401709	14	0.35358097473208394	-0.013196712276724046	-0.19242794992318257
Si	9.456300844038566	9.437173830486973	6.821342567599972	14	0.01973297622160449	0.3293333946788315	0.492850036608545
Si	8.094007047787976	5.388481188928659	8.32708896548751	14	0.3890290608914976	0.15189935965115642	-1.1670843544586407
Si	9.487504640890654	6.7543490602370975	9.603278560801064	14	-0.13351261417518145	0.04622050322977	-0.3941776992950941
Si	5.33495166294809	8.004916290980683	8.194619708663037	14	-0.17315777265920476	0.4353426381338569	1.7695665790288315
Si	6.66928933785578	9.522559952416952	9.510091489658064	14	0.895534752076413	-0.3582254193823995	-0.8029050264863741
Si	5.446107029244935	5.3013325094359045	10.958407886958522	14	1.7935138539806907	-0.2826516351546269	0.25900337975150095
Si	6.8198248096986935	6.818111212068219	12.211455754271942	14	-0.0077133159604442355	1.0591755783930896	-0.6953088968277533
Si	8.227977742536295	8.279679431044354	10.754310249180175	14	-0.7764282981205533	-0.1855888097715887	1.5082016390407746
Si	9.56761941010974	9.587431862713526	12.32052216345735	14	-0.125709052418	-1.035897562156065	-0.2770198860613745
Si	8.243971320420732	5.597311620162606	13.506788683114522	14	0.5418617317738678	-1.4518216702489715	0.03239746969705788
Si	9.645253542758997	6.7541205805530335	15.010854123326451	14	-1.0435211465408363	0.27200031714484946	-0.749703458091338
Si	5.600689855491257	8.283416705876535	13.67233853419589	14	-0.40469711960194793	-0.2197665127923171	-0.5560580897990653
Si	6.858062516824448	9.678758456429152	15.056419500319665	14	0.3578400106949093	-0.07465769940220379	-0.7839125285969722
Si	5.209679516171615	10.878195197874836	-0.0879809983418421	14	0.43216449484762187	-0.1359631346558146	-0.2556917960991502
Si	6.5366568812569765	12.106534619354541	1.3013060405830947	14	1.4466848589298476	0.24901566402485367	0.1704444852148525
Si	8.057042298902006	13.455609233884319	8.15998871655e-05	14	-0.12885042889815695	-0.3576533484486665	0.39182745192194673
Si	9.446329337826942	14.819583987810518	1.241770762907146	14	0.6345914733608604	1.3462819106254051	0.6249287453466797
Si	7.831842930302659	10.580486169540226	2.645484661882943	14	0.7080559227839834	0.8734361018497402	-0.001478899780149175
Si	9.218975732206426	11.809151990568594	4.27441424943552	14	-1.4037268312408135	0.023734387431350947	1.1133965900475644
Si	5.463079805775359	13.514491712462945	2.728390147243091	14	-0.053295670849753486	0.7290739374445979	0.9638202240531617
Si	6.91297924088683	14.94803853018645	4.129868209310554	14	-1.2371210062689424	0.3785296952061409	-1.3144436563354795
Si	5.345657568144204	10.732980038675112	5.498673676556949	14	0.7499628826181409	-0.10165481948482266	1.027547897628884
Si	6.784361498736568	12.121646918457591	6.790612050093445	14	-0.6933785109533861	0.23520857134512652	0.4647087746584602
Si	8.025299942794625	13.509905798804244	5.442973593577779	14	1.5433427352249625	-0.041634679780753886	0.48681693797481745
Si	9.632181240835084	14.874794471466696	6.733002529754602	14	-0.38151757669868497	-0.03443249955795509	-0.4460947434721842
Si	8.157181680431506	10.913495309062633	8.197557304600997	14	0.2901042410356081	-0.38935379149343224	0.2645585099062129
Si	9.593519214296071	12.35059988186655	9.570197966544171	14	-0.8230396093589857	-0.9400639822265896	-0.36115442256311214
Si	5.470864435010948	13.552207180310837	8.259475298982178	14	-0.5105407838743559	-0.9067463139354507	-2.3731698055186072
Si	6.811126261726852	14.9047742700113	9.283896602435298	14	1.4487692540128918	1.5743628638020173	2.031166260932618
Si	5.415213311964077	10.81709320236531	10.899949727793159	14	-0.3633519462802427	1.0068181038746582	-0.2410961454177336
Si	6.766784883041119	12.230827567485031	12.139549933701703	14	1.2992571656514929	-0.13787706545613282	-0.5132792681508457
Si	8.150441529751637	13.657356794912301	10.788696441631716	14	0.0378723813657812	0.5935846574992866	0.9016544969594296
Si	9.617068941732034	15.156901601375262	12.206902480568106	14	-0.34566299878815593	-1.4539490027908621	-0.12359380407111421
Si	8.214938080567247	11.01156205345813	13.541191195543496	14	-0.295606149310193	-0.1349927995079907	0.7810706858866125
Si	9.553926949043369	12.347678605906028	14.987337035845353	14	0.5503450937776964	-0.05343579608970155	-0.7427781859115192
Si	5.561603509538983	13.52183570230784	13.517527228265502	14	-0.9751775675838518	1.2649953874867954	0.21494826142235962
Si	6.953534384808083	14.900906435359657	14.906569467528943	14	-0.7905688631603037	-0.08364499804878141	0.03801610615317748
Si	11.01498924871908	0.011750383751832	0.0017299176079086	14	-0.32000696724052635	-0.13279604712245618	-0.023255904731271388
Si	12.491555526956235	1.3190621760303074	1.3079156314435003	14	-1.1907472651620912	0.3992427767757858	-0.3538036324528088
Si	13.729980694489598	2.7201975185716747	-0.12292207002610919	14	-0.11040737621567075	-0.053410085036500084	-0.058708361769729225
Si	14.98089064475928	4.093752099251103	1.280824468904554	14	-0.4276118386572357	0.18492135083047828	0.855687247603694
Si	13.749042428131457	0.1075976112164283	2.7321927019850034	14	1.2181642467434903	0.3479014030798769	0.38039991721601657
Si	14.95520300027958	1.550577375896264	4.2088732200641905	14	0.2515335474648747	-0.3048513298203815	-1.0795431034077065
Si	10.855918428678656	2.4611341967986453	2.6082587933580417	14	0.6157283020690619	1.518506114942864	0.14103412567874266
Si	12.050948776217403	4.049524960407402	4.049508640429969	14	0.32105726376380683	-0.1686043451372225	-0.5824563994526217
Si	10.952891734586135	0.0382377071257533	5.4057966849851775	14	0.19850090068937237	-0.2226327810032182	1.1636809823463605
Si	12.232916524596467	1.4834043487816246	6.877075290534009	14	0.2880638118535386	-0.25325387403458577	-1.1349815334312716
Si	13.602178951210991	2.956217032209167	5.456013255546826	14	-0.9958839642796645	-0.7684948955447043	0.26905563022168383
Si	14.962090030756348	4.201529230219295	6.813541618386951	14	0.4961348807655662	-0.07445406786084807	0.19343196655070044
Si	13.63286050878522	-0.0180498950410086	8.012651960283973	14	-0.2827879037365948	0.21137391080628976	0.5685744876080783
Si	14.999217979416649	1.3510330118217504	9.330669657758563	14	-0.4892715722239629	0.34913013431237566	0.5633908821721276
Si	10.793722994681112	2.7886761438809624	8.137157068121093	14	0.5045501084784108	0.4439928648729631	-0.29616407916466514
Si	12.157093909442287	4.25040756263143	9.328907100195789	14	0.885394312693749	-1.2380661445846284	0.9733829360703886
Si	10.941092390902003	0.0372911484346335	10.731397000864101	14	0.08742040910088685	1.0565661636036714	0.6007302734050421
Si	12.337233820348844	1.3996665445723886	12.188542505955867	14	-0.6342443741426403	0.6527193085310965	-0.9744779698262396
Si	13.681722521219921	2.7989740496412483	10.759434722094168	14	-0.7442835680764659	-0.059277347377077995	-0.6280364403471428
Si	14.992510468691647	4.150545620718292	12.141149291490148	14	0.0906821133100267	0.1874793435134936	0.2739978088680725
Si	13.62833987503625	0.1451825192448576	13.55674413403724	14	1.5150209816814035	-0.4136980451067223	-0.8721904013221286
Si	15.122384849104257	1.429450503387796	14.795985300442256	14	-0.37471880290061743	0.12270188763555483	0.14586883212274912
Si	11.020603320956067	2.8185253826061025	13.577568425241877	14	-0.468264356205693	-0.9019478600764583	-0.8124335428028429
Si	12.302031629025645	4.07609388366849	14.908283065159416	14	-0.16763658109471877	0.5407592418125883	1.452714615126659
Si	10.814155606427352	5.3902763864463	0.0357244306010559	14	1.2223998856479024	-0.5132306742602948	0.7897368534787037
Si	12.258310409482371	6.916373796192914	1.3392663080924851	14	-1.0871965126141914	-1.2154345042250894	0.031033241214187313
Si	13.468289856349838	8.182428685520513	-0.0903637150470747	14	1.9693280926566725	0.32459639023699066	0.4935056684651827
Si	15.0283817790896	9.497574066966877	1.402228781029385	14	-0.30490917969008474	0.09537438051929695	-1.2532847740851172
Si	13.441492453404688	5.408309961509875	2.6688548695671424	14	0.5712630924413571	-0.42445117888717765	-0.403239559995956
Si	14.918483051055105	6.7627864885700095	3.848707638093107	14	-0.13766057838817636	-0.10091228426836388	2.0654136409075226
Si	10.91326682937857	8.215786719393767	2.744612204811592	14	-0.37641084731180685	0.12555375765666307	-0.1538960800427834
Si	12.243867229454077	9.611291669720718	4.077644281524633	14	0.011228788264682706	0.02620830497039743	-0.1813521424250487
Si	10.745513781343734	5.507225344731895	5.322026240821075	14	-0.29377809342756767	0.1931154634857902	-0.05671446959395439
Si	12.091569200048388	6.903774773614561	6.632895788179967	14	0.6013838483774239	-0.5704436811758258	1.1059185302239136
Si	13.555324296000562	8.205505133610917	5.409109640404097	14	1.1724664492253065	-0.1702917615588357	-0.5277980427831898
Si	15.004048692736848	9.529822342374683	6.861032752717271	14	-0.17463333000243775	-1.0886964954579659	-0.5372550823717585
Si	13.603664069157404	5.551256643846398	8.140290503788249	14	-0.5393677596133242	0.7003253804178942	-0.8301422878058949
Si	14.839575960166066	6.885724878573552	9.586126264518876	14	1.1087490600708647	0.045943338076258035	-0.16341739726435578
Si	10.788467961947653	8.087087377356342	8.24142540394117	14	0.8164524375287663	0.39798602049529747	-0.2429946495861309
Si	12.227906291524507	9.565318293291675	9.565742612704936	14	-1.5511712367037493	0.18979770918067113	-0.4659606458388403
Si	10.910166033666279	5.440280797301318	10.828337666816717	14	0.25500042587856236	0.41804424153990066	0.8970578748680686
Si	12.222031099648591	6.741048278629121	12.406234684935988	14	-0.4551972276371044	0.23952288607233493	-0.8494255777070054
Si	13.365261838814678	8.11514141856384	10.875632961417839	14	0.33097555964681	-0.500715047782878	0.3147084333967652
Si	14.757257993993509	9.50238846030964	12.16606989703049	14	0.843653189152741	0.09086569022988528	-0.16178654515978586
Si	13.632958428649818	5.409028040516931	13.635406425264783	14	0.46406831232321133	-0.2473174489608959	-0.5512316108920833
Si	14.940792460206152	6.774341032592645	14.927556958507909	14	0.06345025131167832	0.7825750396094312	0.30198583294107645
Si	10.94791414146904	8.160266156166363	13.766374244165409	14	-0.3705680104717703	0.5529892184889366	-1.0176684254362152
Si	12.17132492976395	9.64868073801995	15.057904618266077	14	0.5073963220678148	-0.25823821880822484	-0.6963193412185715
Si	10.977632820374714	11.07742948237812	0.06758102655046709	14	-1.89837252780495	-0.4580488405476807	0.45885925294459134
Si	12.474501150538646	12.351677000377135	1.2912366145068719	14	0.7197840197018388	0.5919088110516142	-0.4405915496449392
Si	13.768169441683051	13.811221542151568	-0.126316625332194	14	0.03777107981616736	-0.15162502271349662	0.6789080731010607
Si	15.09344952911537	14.979878806158426	1.4666110920029647	14	0.1711757075679026	0.3994250681429843	-0.8510618291327476
Si	13.666495982274837	10.907995476667676	2.668022550718054	14	0.06544594326117727	-0.13032727179405001	0.9388931008637941
Si	15.018508192742575	12.128990908302487	4.171533111697258	14	1.0856407367849699	-0.30614793823333214	-0.9289552645803579
Si	10.007557041773818	12.361779066408225	2.2935280285607083	14	0.42044719657211105	0.3752957589344586	-1.606065363731039
Si	12.460629169720512	15.199447782543354	4.116665347567175	14	-0.1534926736180522	-0.6577959559857288	0.45189875662188644
Si	10.867097613220329	10.821744395933743	5.531183071603684	14	-0.007817702836442248	-0.45677177253516305	0.2512810649224362
Si	12.336825820913015	12.22219429942292	6.718118710335616	14	-0.8720847288934704	0.8923684358746508	0.48865707805244746
Si	13.696867460277836	13.581044580435128	5.2857632509647265	14	-0.36962801436672416	0.4985388642399046	1.0782331252470911
Si	15.036884487332244	14.99378342693143	6.705731847463892	14	-0.800905220768363	-0.696761828444169	-0.11039169247321785
Si	13.545564949495567	10.763939035865704	8.070604200148912	14	0.276403077895071	0.9974921906574172	0.7111080819095312
Si	15.032788172996536	12.1536503942039	9.37488047662483	14	-1.440561771609915	-0.18733047651545703	0.4794172968634313
Si	10.91515994676081	13.640090258788081	8.230409419173826	14	1.176570961758391	-0.27815040107064365	-0.9335112632076601
Si	12.352705158955422	15.006513009329245	9.529153223299925	14	-0.00909579929108786	-0.37107014734079524	-0.6901594870925607
Si	10.83951685135839	10.99339791857509	10.97218194791206	14	0.4636214542185696	-0.7387312661376061	-0.6427177088357203
Si	12.235870440511858	12.280130219310426	12.238546916810888	14	0.4711257393164858	0.17880803371076218	0.8351168623793173
Si	13.614092534737154	13.537715040350246	10.834180218737766	14	0.7525872098184162	-0.07614791204576163	-0.09310486585320224
Si	14.997863421289702	14.930200794852071	12.192850979998207	14	-1.213003781255421	0.5367745427874228	0.06482450710529747
Si	13.592289044886533	10.859590423601103	13.637576982263385	14	0.07766486418464899	1.067673081476179	0.21618830551826704
Si	15.0702914811378	12.313928892574376	15.012992040370188	14	-0.8922429659350275	0.06715547118854373	-1.5352026157813738
Si	11.009309896572363	13.761461930958047	13.63692418316606	14	-0.7244981413063304	-0.34246840042787197	-0.5816570428085878
Si	12.415308592388792	15.140532664009864	14.861346810061821	14	-0.9658210582133011	-0.6998229864383374	0.9000059042281506
H	11.11759294684098	12.273484724499667	3.488847239700022	1	-0.2502744771895982	0.3162472399308738	-0.2585871178001689
H	13.11778080502592	11.117743090633367	0.6027081905885862	1	0.5606940498018244	-0.7123393842473501	-0.644223605221731
H	12.2025009826544	6.7543490602370975	9.603278560801064	1	-0.026857251953202804	0.07341508420097623	0.11222540478754746
