225
config_type=interstitial dft_energy=-23349.60464728619 dft_virial="-10.549993871478325 6.37361804333568 -9.895668064748046 6.37361804333568 -14.427480133583678 -1.2036363605285376 -9.895668064748046 -1.2036363605285376 -12.21004267744218" pbc="T T T" Lattice="16.3852778749 0.0 0.0 0.0 16.3852778749 0.0 0.0 0.0 16.3852778749" Properties=species:S:1:pos:R:3:Z:I:1:dft_force:R:3
Si	1.5501128280770398	-3.79737007389745	-1.1550801637910757	14	-0.7560615444375323	-0.3346398989490851	-0.6453775172894135
Si	0.004473180859847701	0.18970874723559222	-0.026511379601588204	14	-0.6233824826071427	-0.5412348962968156	1.3627470119851015
Si	1.3011713013236839	1.4792465012680973	1.4203741978635815	14	0.5515763961155152	0.24827569991371512	0.3584203091656667
Si	2.7786481925812923	2.710501821899583	-0.07846909574289611	14	0.2595579671690569	-0.13199437648363405	1.116894835946158
Si	4.195335702923021	4.105003665998697	1.4057585299991706	14	-0.18604518096591502	-1.1224612789642785	-0.8716805511371432
Si	2.5742090805361646	0.021317246515244904	2.956264604745208	14	-0.5539130166304658	0.4783261197655605	-0.2884031977557982
Si	4.072888521363893	1.2988282065875734	4.28648700374109	14	0.0853498979865716	0.28198289066085636	-0.5336048841487442
Si	-0.13727585803591222	2.980088798775313	2.6894795103860862	14	0.8354979001877633	-0.7768376180875208	0.381779315220276
Si	1.4346130043368694	4.1632041730103415	4.106035938504816	14	0.727376236601704	-1.0639673473782496	-0.5176257216945559
Si	-0.014500970919286503	0.036948801607899505	5.362508201785773	14	-0.8393465877414928	-0.0603507838482398	0.08130143554946644
Si	1.293797926279979	1.313181710005986	6.7613193739659865	14	-0.37719734842924013	0.2942419208273224	0.746838475433097
Si	2.7481224199003536	2.652661791001186	5.676204346700733	14	-0.21397766916400374	1.1283264844206005	-1.6230768249712666
Si	4.114769291612138	4.0269278169247995	6.937772431400784	14	0.008514729488734394	0.9431853040852495	-0.8053799724675488
Si	2.781302607597026	-0.06724518039858961	7.8866766436919935	14	-0.5679173130882483	0.6698467266212628	1.058259236456989
Si	4.103512605712082	1.2824756992684232	9.277590111936505	14	-1.0036096215456454	-0.706556197050741	1.0420587018347358
Si	0.017089844823520703	2.780319490924532	8.224590229306056	14	0.633857422791958	-1.822477355412159	0.834173523837355
Si	1.4368741726836058	4.080917307522594	9.590253984345345	14	-0.8022781910093221	0.4720755056217485	-0.8176294895443302
Si	-0.0926259758268097	0.0332784993639219	10.831881185871644	14	0.4310792312919874	-0.42948900265147577	-0.09107343553975324
Si	1.3119691994432432	1.3752163720403572	12.119092230445913	14	0.33893313061266833	0.8515284847483545	-0.2608314356341262
Si	2.8267389831441236	2.7127957608020687	10.63517592498347	14	0.027263486593786204	-1.3885462540990632	1.901830664460549
Si	4.111983794373405	3.8210140298709305	12.29310388147735	14	0.09871733165655348	0.7215431699618843	-1.015847054427422
Si	2.6299845664223245	0.10935534453708262	13.541039414985486	14	0.9310172910471165	-0.9577256760022828	-0.13903354862913544
Si	4.093206265928769	1.250032849076121	14.976455297938225	14	0.4928232971132154	0.9725591539258132	-0.23287786437241223
Si	0.08757931024134051	2.849760298558358	13.562340276222855	14	-0.491184474582153	-0.45280892790521887	-0.24835000485746733
Si	1.3975331205059711	4.122257363600967	14.957481146159092	14	0.6105858343182338	0.1786290847804799	0.43668604066363426
Si	0.0369160310521497	5.438224570845686	-0.006750734484458801	14	-0.21708022195382642	-0.0622968534650599	0.4038802794417369
Si	1.3194408861541975	6.799644538915377	1.4713815678881452	14	0.6104842756580879	-0.3179773367008014	-1.7128024871021983
Si	2.6760927383622928	8.074337231193223	-0.11361551678455661	14	0.1680276462139133	-0.16359428931038197	1.2361447575788818
Si	3.9837526097244376	9.407394283261462	1.4097237672448966	14	-0.3644500653624779	0.5169531205428052	-0.6874775671331143
Si	2.807469896363241	5.456592467343448	2.5801897069605033	14	-0.41455113785194747	0.19616402306388975	1.571691228263851
Si	3.9797382166450865	6.838035244976267	4.15864906576112	14	-0.07946283813502855	-0.36351701124179625	-0.6125812691572007
Si	0.1945587894865626	8.163948315891052	2.862737438635279	14	-0.3820765349952851	1.3904146763352148	0.35038303393488374
Si	1.4374476574092274	9.750551157795494	4.267807786963703	14	0.06358729122524222	-1.100345402331961	-0.7485888839350539
Si	0.12798540548084392	5.476402268294203	5.416251913215445	14	-0.9872594485937598	-1.0230767454771466	1.0099296555331014
Si	1.3528668530189936	6.653029072490772	6.922992910757625	14	1.4556796137818537	0.396085202332112	-0.06198986348983421
Si	2.6795828025496466	8.168962210920771	5.5641782018700425	14	-0.17673906525963903	0.2386584804637012	0.24150340850044505
Si	4.062696878525705	9.579570783170912	6.857681193148273	14	-0.09128940838664569	0.4338179726790091	0.4716895827131943
Si	2.859280145003675	5.415645657934074	8.369337774052923	14	-0.16856320745210016	0.6971932599168897	-0.9037460911373698
Si	4.132481776994905	6.999135297042285	9.617961489231801	14	-0.5691696984896925	-0.8926476579124187	0.13803210310693775
Si	0.09134792415256751	8.133799404601234	8.084463332919912	14	-1.0469466301588695	0.7053881439037979	0.8981907038721259
Si	1.210200238562239	9.532823585393821	9.578538510664794	14	1.2000528666473032	0.451820595020154	0.21913993442579704
Si	0.16953847017159032	5.540796410342559	10.835322094225372	14	-1.7411903180524855	-0.10670447033359348	0.5475076219463809
Si	1.4307952345920179	6.779785582130998	12.298773187622066	14	1.4573102087758918	-0.690511471410889	-0.06078967152638909
Si	2.7547420721618128	8.266438228998549	11.015937012240395	14	-0.9378034664291154	0.569561534940483	-0.27117730633187004
Si	4.171052721112419	9.692727512174972	12.225530995521265	14	0.017980767945923577	-1.1009804653460373	0.6742574577979767
Si	2.9512834802712384	5.300981483365524	13.613642581249167	14	-1.1506984431428047	1.1511792398376726	0.30793408509923903
Si	4.254044153548788	6.81232674399055	14.980109214904328	14	-1.389444598297923	-0.9899141148368127	0.4800261346032424
Si	0.06536087344297611	8.137617174346087	13.499175030015117	14	-0.9274030882985844	0.2495327133047355	0.40410088027820557
Si	1.5236669895869512	9.373001585002047	14.753795756896208	14	-0.4520026292768204	0.3946602957636859	0.6533515433293209
Si	0.17827182327891203	10.800454222907584	-0.11674510485866252	14	3.2159675879313356	-4.015638421035495	-3.2948123323473997
Si	1.424732681778305	12.451582289083383	1.5320234813031501	14	-0.3933793710931881	0.05362631499392453	-1.199874946159149
Si	2.627133528072092	14.099990399131947	0.30389774874577036	14	0.2713451995092757	-0.38013560758910536	-0.5025402754496511
Si	4.088896937847671	15.301916072367364	1.6008088778219802	14	0.49201185627417665	0.5489304716305509	-0.3831810818408207
Si	2.826116342584877	11.011676839992921	2.772274319487956	14	0.32308149498235944	-0.29292037269276633	0.18473648835795964
Si	4.201562108515484	12.552286206902519	4.089470422573292	14	0.31193678186164553	-1.2840642472042056	-0.7327899559638079
Si	-0.3818425155966696	13.66581330600285	2.5929046825914255	14	0.7966415568159614	-0.08532238715964602	1.0453515164182494
Si	1.113740107712703	14.842440110199417	4.11032888130804	14	0.3416302200935037	0.5550044508388686	-0.9222997013486225
Si	0.041028735798749605	11.000354612981365	5.59821042401621	14	-0.7634966668023365	0.339499030893633	-0.27408779755427765
Si	1.490912819115026	12.351730405713743	6.869773528219949	14	-0.5029637364958793	0.23918941371231178	0.43537631961355083
Si	2.70935485244834	13.689948820312576	5.334489376619694	14	-0.35944797996212985	0.23268374592074106	1.020931929419079
Si	4.164482224684584	15.012633991486004	6.686848286024565	14	0.5993246501265173	-0.643371798029166	-0.7313208263838753
Si	2.740683503745149	10.983035374267596	8.351117345056034	14	-0.5545313674599615	-1.1899702771343428	-0.8941152448291592
Si	4.202037281573856	12.300444485965306	9.46975665085333	14	-0.1454625974821657	0.7076376039483954	1.0899213700324843
Si	-0.010617660062935201	13.777462589442418	8.168781972864146	14	-0.3949040365480359	-0.5495521648969626	-0.885897992225966
Si	1.3289607325995143	15.200229037875733	9.328744949461942	14	0.5880770927929974	-0.6156511689094575	1.587432306365394
Si	-0.11558175012954462	10.989917190975053	10.919804586948358	14	-0.6754424802400332	-0.5367912549720038	-0.9754048532941532
Si	1.3429701451825538	12.232658591396845	12.112587275129577	14	-0.0036756521656836935	0.8276629709456761	1.091998566020632
Si	2.6664909655276015	13.638630130008389	10.819624998021219	14	0.5818244217649293	0.7805035000529879	-0.35193623865878526
Si	4.111098989368161	14.897642111359957	12.36639522941178	14	-2.038194120214711	0.889023942074202	-1.1189841161293101
Si	2.7829902912181406	11.001567123544108	13.643398245869985	14	0.2447550853988363	0.36238855311678325	-1.3256737301528223
Si	3.9806066363724564	12.45635040494498	15.173226099937898	14	-0.6241808108090487	-0.3322171464059096	1.0820386182314423
Si	-0.0688017817967051	13.681461246373377	13.641268159746248	14	0.8119092944280646	-0.27055072796534996	-0.6214179010320177
Si	1.244003066818158	15.272848589417292	14.991021809969011	14	0.5486245100974533	-0.7657911211900366	-0.2802484230118845
Si	5.483202158612286	0.03894780550863731	0.0554477803286616	14	-0.1975724745582669	-0.378966526000034	-0.3042617753704715
Si	6.832365938831553	1.4699068928794041	1.2884235551370118	14	-0.18154060444501557	-0.19653477645105513	0.6362012424018051
Si	8.089641080728379	2.7882499654159836	-0.11938313459652142	14	1.4383490783713955	-0.5203050705486821	-0.09655528919284095
Si	9.535805705967054	4.076509667774246	1.3449199932496672	14	-1.1815331950262766	0.020479368096043477	0.08482950626977363
Si	8.235601136037989	0.18215513413526332	2.6928548776283154	14	0.4337135858030111	-0.48873472543311597	-0.035388436515986145
Si	9.5733116070227	1.4843423226871912	4.186700661482949	14	0.24655254512815183	-0.5825001082430642	-0.19780361692654821
Si	5.434767277214082	2.6236434638847377	2.8063229269119985	14	-0.6513861904225996	-0.05790077758867072	-0.44799273341951745
Si	6.7746897607119045	4.055208806536876	4.105478839057069	14	0.4539111607559664	-0.5970073129014678	0.161250726811067
Si	5.652445693782129	0.0194493248375063	5.436815436948445	14	-0.06938719060643225	-0.16310629352061787	0.35596593202705334
Si	6.9623995040467594	1.4619272625543278	6.844146953623605	14	0.11244292029763198	-0.3367885716651328	-0.6659769560039079
Si	8.337566720253491	2.9252308884501472	5.530981628895495	14	-0.9109081621171744	-0.3183910275468133	0.07523851209402525
Si	9.527498370084478	4.32985883427595	6.958942210415155	14	0.14743566370484734	-0.6903615759707243	0.41673452048981724
Si	8.167405609522655	0.05859375368064241	8.285641774667933	14	0.8030870607430407	0.052196266214858164	-0.0788701983587344
Si	9.702640605289286	1.5637617645468314	9.554042520241818	14	-0.3878016152116589	-1.1698835168206858	0.250878429829301
Si	5.454216602051588	2.628722900025957	8.138321741294707	14	0.9342831090247687	0.6385576604277208	-0.3049446609435028
Si	6.60680620360568	4.125747427788321	9.4710838583612	14	0.2846619824044507	0.2081260905658787	0.6532214454001213
Si	5.210993537276573	-0.1775181004966666	10.767913061048034	14	0.4542613453005705	0.5144352371027842	0.25771422754397866
Si	6.844163338901481	1.047379732319358	11.938690321043264	14	-0.024403389035653478	1.3086625260231266	1.423475491204871
Si	8.063539333073663	2.771782761151709	10.750511895944891	14	0.5076480332786573	0.1761253424197197	0.5982609838555719
Si	9.425450859479602	4.328531626768084	12.141998848915023	14	-0.06701611728019169	-2.0860166791694654	1.0106223113063495
Si	8.203617073626184	-0.21923501796616202	13.516182948449261	14	-0.8947173976951379	0.43128080594908696	0.7293793847566316
Si	9.522533630888384	1.2439375257066583	14.91427316840298	14	-0.6463499093214936	1.166153871443279	-0.1346315592105099
Si	5.608172672964148	2.618383789686895	13.5507558847653	14	0.008412913718056528	-1.380103772669825	-0.2250545051042657
Si	6.8914512508484425	4.13570967673626	14.818239054778191	14	-0.8023455539687099	-0.3754798500753812	0.8146014988087917
Si	5.485332244736024	5.368685451544611	-0.06185442397774751	14	0.6307880372607654	0.365110839429756	0.15608126245437728
Si	6.767070606500076	6.7293516968320555	1.4512440613798931	14	-1.2905999969280222	2.0538387818667476	-1.9456911501169554
Si	8.094835213814722	8.229423886279152	-0.015008914533408402	14	-0.5009510752512675	-0.5855705222163851	0.4125443901495719
Si	9.330023001136185	9.641212198536286	1.323799370068921	14	0.9707683790703301	0.28289177639152874	0.4830394700384559
Si	7.947154704328249	5.39078919139785	2.651482050994193	14	2.7300893605089036	-0.8842540274842633	1.2501086876831382
Si	9.47817868368103	6.783947442711223	4.019095654100597	14	-0.9164486369715615	-0.8966778655017509	0.08217458291618872
Si	5.3388150899786675	8.155755676953602	2.7968686215781813	14	0.7819713440802605	-0.32318588185835745	0.03174518027733632
Si	6.6713805837106595	9.512079823604198	4.222142017526357	14	0.035317731119682075	0.24772111249615913	-0.5811909014140448
Si	5.40807565955587	5.414007130146584	5.331327017989839	14	-0.67594101756161	-0.06662710904525329	1.2644860515228742
Si	6.695974885800886	6.8041996461646	6.724190334301463	14	0.443417965723378	1.0438057678997765	-0.18450560310021033
Si	8.22778535849166	8.210974063392014	5.376665081869686	14	-0.8006131432039941	-0.5794831732604024	0.5423479277899077
Si	9.725530838480521	9.492384719598567	6.619914425905598	14	-0.13270657265731503	-0.47336774315565494	0.7752576738682899
Si	7.940174575953542	5.58908382423989	8.20735291698166	14	1.01601649026802	-0.6747261702978399	0.4859016244808448
Si	9.410720494670066	6.786585472449082	9.68582931018964	14	-0.03848019066346421	0.7467757404632854	-0.42263752119434517
Si	5.459574587916681	8.216905533982727	8.209974561441646	14	0.5316217906153139	0.6392991672020515	-0.39341176702022196
Si	6.850373359216067	9.65848228141643	9.576621433153429	14	0.255185031240549	-0.4603898319416755	0.07993900684031997
Si	5.281483002694392	5.474288567448341	10.983854638161342	14	0.3497690539844325	-0.8751361166874222	-0.35324056038769636
Si	6.770347662075055	6.686979368247565	12.255729062644704	14	-0.6110008107169057	1.1916859757144773	1.0562874557869675
Si	8.086347639875525	8.187575886586657	11.114920475882666	14	0.08708642251979962	0.17172438144322222	-1.4751765625350686
Si	9.607442140836117	9.335610380891525	12.4160590066506	14	-0.2953562378730746	0.9967812800363961	-0.08959839241758429
Si	8.214283889522743	5.588575880625768	13.68778596363309	14	0.05502216807223292	-0.2280950942558728	-0.6838119422781791
Si	9.532774429560197	6.775623721550774	15.143093573925958	14	0.09196123820680036	0.3970542519272758	0.24518214599251292
Si	5.420053297682422	8.228211375716409	13.72704508942135	14	1.1605388345346075	0.7854585342259773	-1.7228300549613078
Si	6.807804407297077	9.676276693188573	15.00814442534828	14	-0.16510635634916104	-0.24865750905375703	-0.0010554387339207865
Si	5.285038607993246	10.93232293924478	0.05189217502980831	14	0.7989007870607755	0.020494794727964366	0.4911011707697803
Si	6.696548370526506	12.327185259457144	1.496664051649116	14	0.5658051500677467	-0.46718783440814704	-1.1817334841307163
Si	8.28536322494406	13.509251975908178	0.0661309815030964	14	-0.6416015920162441	0.44557409464485426	0.5610910284632552
Si	9.60427978220626	15.027986996854784	1.4026125566471899	14	-0.6925480439349784	0.3058805432800368	-0.2071084470801641
Si	7.983857726768026	10.918067747493618	2.8621639539096573	14	-0.39830663732871985	-0.7369327779661625	-0.8779098251067979
Si	9.441000488182883	12.164299212102764	4.05057177289828	14	1.1452037339631165	0.6914884914325453	0.20231744942660018
Si	5.55721445877321	13.900303017670543	2.6899219128887086	14	-0.4669415225184768	-0.5669552054774489	0.6845886731953958
Si	7.027170507486239	15.05762796453048	4.0415598700670845	14	-0.1119261281282822	0.5772224003523962	0.3856367445320942
Si	5.410746459849479	11.046626637700083	5.499784059821685	14	0.021450217464931393	-0.3930752093338146	-0.03901163813313882
Si	7.087189780341997	12.176981417177934	6.7073954244796905	14	-1.5830218322992118	1.061786021624636	0.23489181116968422
Si	8.367666475709683	13.67802033801965	5.43907660529518	14	-0.5823620398873722	-0.062221262968647544	-0.07792506004304799
Si	9.575146758144689	14.970163351234262	6.9563369512330455	14	-0.9311944402036747	1.4878400275683938	-0.6984379320023735
Si	8.346316458638688	10.764291914637681	7.997736057128066	14	-0.18379032160014513	-0.3254829073513777	1.2990291086095955
Si	9.433037243135681	12.176752023287687	9.520665709210645	14	-0.6350473303341226	0.23516126300723578	0.5378348666214517
Si	5.5082716337608835	13.6038933409136	8.041042346551427	14	0.1221161898436251	-0.7797956747583512	-0.9450961495591834
Si	6.625714814273314	15.02636485434517	9.391893810391807	14	1.3480148356111847	-0.29404780237565126	1.0570965826312178
Si	5.536831173096834	11.123866837602362	11.028209585368696	14	-0.24580126815360456	-0.8681794770226976	-1.2751707939018135
Si	6.812375899824175	12.30791617267626	12.462150793312693	14	0.2532019377071188	0.3808030665302158	0.7833952222065584
Si	7.970847816135355	13.558768285646128	10.907712251876681	14	0.7382363283634776	1.0084181027153865	-0.903834022939319
Si	9.567642300877985	14.960774587011946	12.11643781543018	14	-0.7710564877751679	-0.9438422214945472	0.09752948099864506
Si	8.362488727901214	10.916494760817628	13.663486596544612	14	-0.6516312167596098	0.11673872306653539	0.35048433548449764
Si	9.697561169148067	12.349321769866133	15.01676308151048	14	-0.3093641338783054	-1.1116934898834985	0.5926145794619947
Si	5.303472045602508	13.70256548427625	13.856095537964062	14	1.5418712916502417	-0.5954921605363045	-0.8322878751955585
Si	6.7933525922114155	14.812651675022849	15.17376681410777	14	0.8505674055796831	1.534289359171657	-0.22729368072758266
Si	10.870075268598036	0.07863294852164511	0.025233327927346002	14	0.038470163352715636	-0.4137731213820706	-0.06440361716438922
Si	12.178292239407925	1.4657941881328043	1.3657948372622897	14	-0.49284643706109676	0.9104690173284931	-0.4098298171525595
Si	13.661356510420875	2.7093712377262147	-0.005423526976591901	14	-0.42092927881963876	0.4711187973321214	0.17359460345309793
Si	14.838114396840444	4.238052122342885	1.3372189126484642	14	0.27112485578333906	0.049779427213918974	0.039813051661428976
Si	13.486869686331065	0.2108457556942132	2.6651637580197347	14	0.8725171888083193	-1.8478523651482963	1.5151631638056076
Si	15.017451263181226	1.4890776679930373	4.083817501706451	14	-0.42187904512490154	-0.14345662111138618	-0.5893644452267955
Si	10.871779337497026	2.8760914401033224	2.8031769535600177	14	0.5428940305599071	-0.6036189102322286	0.09254950710405026
Si	12.275735486929957	4.09799076706824	4.285307263734097	14	-0.5660159807039988	0.74716552002982	-0.5865688824121986
Si	10.904451581579576	0.003916081412101101	5.584151855599545	14	-0.8095125100486226	0.46781158455881494	0.016907588585293766
Si	12.268312956052627	1.3703991003451366	6.8731980512958035	14	0.021261498334432524	0.3479759651341612	0.06989729790194964
Si	13.630961819962936	2.729066341731845	5.542418552852175	14	0.7854721610841741	-0.05749839960606753	0.5141997238554585
Si	15.115517151262502	4.049965517616909	6.97123116882133	14	-0.6863372819236286	1.1293952929021858	-2.1028959855962372
Si	13.543857682779967	0.032868867417049405	8.275810607942994	14	-0.12242163715565868	-1.0484810658139336	-0.6504994161976805
Si	14.8782255570782	1.3436583268532996	9.547390097424607	14	0.6813701635556345	1.2397790149489114	0.4027744470435412
Si	11.086623100992714	2.899604313853804	8.209564929494771	14	-0.6730603511609159	0.4380728948733222	-0.11228916819948713
Si	12.43395173008999	4.2685615097459495	9.6140454078197	14	-0.6281187157173875	-0.1423405042919099	0.44965443878792916
Si	10.988524442355686	-0.034048607424042206	10.999174872974372	14	-0.07733601981420206	1.416721454639374	-0.4625079085044135
Si	12.278144122777567	1.437480427964977	12.456858348559102	14	-0.1834131404496794	-0.2029692246252577	-1.1756669611278265
Si	13.602140116180987	2.7369312751117967	11.004909720230588	14	-0.06680605797553561	-0.010394464588294655	-0.6444179807839343
Si	15.008570442573028	4.116604442734127	12.20418097845027	14	0.6260913991724508	0.8206860195489223	0.25405477334181187
Si	13.801139315971646	0.23317888943770193	13.686294903346473	14	-0.61336725605357	-1.7202484081093472	-0.3258392625487502
Si	15.124463512982196	1.5164246967662454	15.02970745103165	14	0.12833980738157555	0.6008326033967841	-0.4858622865694466
Si	10.862538040775581	2.8471222688204993	13.61549411764903	14	-1.0017998205107932	-0.14656431611184914	-0.03156391735226587
Si	12.304786584602155	4.060386554345345	15.00285198059469	14	0.025625178283787842	-0.0810350690382991	-0.28323656161496064
Si	10.920558309730604	5.311976004819581	-0.011420538678805301	14	0.0969797786811974	0.7428262655810061	0.06611237376015965
Si	12.245291640638392	6.787388351064952	1.262190725259297	14	-0.3179973913222986	0.05586831883309366	1.1480502046630523
Si	13.756194498760797	8.068651539770633	-0.0015566013981155003	14	0.2967567189409593	0.2819726062395758	0.2548394746855211
Si	15.178387462468493	9.39544941569066	1.433531575997126	14	-0.618472185666724	-0.09140870767350054	-0.06938179128525994
Si	13.552509109497915	5.532407148070611	2.8860373037733864	14	0.209450466916287	0.015202688647503576	-0.7455104995352406
Si	15.157938635680617	6.785798979111087	4.130155067536669	14	-0.8088051989750499	0.06673869501614772	-0.303071610717775
Si	10.645203715042907	8.085413679036655	2.6016708062544973	14	1.3950562927696784	0.9258552828958553	-0.7670450492546729
Si	12.166806159617622	9.331563217256425	4.010280374603901	14	1.1107192980776943	-0.34105892049136677	-0.6859783556209359
Si	10.829341467801035	5.5690773999546375	5.526033274977275	14	0.585936390503442	-0.22937910425275473	-0.32064794379683925
Si	12.316698681617206	6.765628702047085	6.897022245325909	14	-0.11315305958705688	-0.06860531747857523	0.7577371337746728
Si	13.643676795593858	7.955347343265699	5.453348182324219	14	0.04044862889656958	1.6792973852332207	-0.2344292693225896
Si	15.027724832408786	9.47657292644929	6.78112917491674	14	0.20229970879989118	-0.4488705087758161	-0.5532378443733948
Si	13.89564959875407	5.541058574788559	8.271108033192897	14	-0.9233867646779811	0.33551330342633934	0.1491611324851987
Si	15.036589267739107	7.085911728667755	9.669640655649237	14	0.6389178722830735	-1.0294001219015187	-0.5258288332184883
Si	10.837271942292485	8.143155398267803	8.288558354129666	14	0.045141924547967886	0.21586511757952445	-0.3596618959247662
Si	12.14817609867386	9.660251891426919	9.55371481468432	14	0.7578091247236369	-0.3194266687697689	-0.09063866163011619
Si	10.917248483599872	5.6294899194793935	11.076480613988151	14	0.9607351547795162	-0.29188473146981064	-1.4503733666221321
Si	12.369295423595636	6.903084798139621	12.414371323029487	14	-0.7082266441772412	0.5078987160473717	-0.31441172784282007
Si	13.586115314419335	8.371517016010284	10.996274678790515	14	-0.3005357295405129	-0.26639762154171476	-0.35012206674488877
Si	15.00814442534828	9.60749129666974	12.325251796667905	14	0.23314114555719542	-0.08541366139851127	-0.2698531870919938
Si	13.645331708659223	5.4851356214015246	13.663470211266738	14	0.7135434328687755	-0.8235877690132414	-0.02817571476137474
Si	15.11047048567703	6.7443114555318395	14.984926486599548	14	-0.05710347782889279	0.5406581973735064	-0.2104665677388095
Si	10.933027506193403	8.119609753961571	13.865041899683757	14	0.5541886391207856	-0.022011232645787707	-0.22967606691723186
Si	12.35338531877911	9.46864245195784	15.15243318231465	14	-0.0791442781858622	0.7895663891959779	-0.19558886680377263
Si	11.028766684816441	10.96284871192572	0.09706638613090761	14	-0.9641773505821304	-0.6897607086574058	-0.5494619191002255
Si	12.353205080722484	12.283125247251537	1.3984179255112157	14	0.437079933998681	1.0054885853136097	0.1959233676059239
Si	13.75670244237492	13.634058637481292	-0.2024892639780142	14	-1.5903106587712996	0.5514547828338723	0.5925742131084685
Si	14.855581103055087	15.144830413380697	1.2313208617429854	14	-0.1000545635335625	0.6647232850498037	-0.19795556925096897
Si	13.67066334825382	10.81334943659513	2.7154010199841783	14	-0.09481233689631258	-0.40970743253932046	0.3471935777852401
Si	14.849797099965247	12.274178885531843	4.215850070822396	14	0.7471480365136429	-0.5564650957712448	-0.7705836615067927
Si	10.815430366885245	13.634632122206913	2.799998209652287	14	0.9570487039714878	-0.3268633337977653	-0.1846007339970558
Si	12.128300756611608	14.990972654135385	4.268954756414947	14	0.7001700856565573	0.3737379262209809	-1.7262084873519823
Si	10.998699699916001	10.863340919391451	5.237259137710038	14	-0.24995797412468795	0.2885728907069279	0.595171800813414
Si	12.273048301358472	12.13908226945329	6.765989178160332	14	-0.7929571628921892	0.8154489351223125	0.35926466015280334
Si	13.536369610791139	13.651721967030435	5.51692306047883	14	0.4236099132264252	0.5998190736795818	0.45578626786595033
Si	14.963887789808176	15.160396427361851	6.782489152980356	14	-0.3024977400103179	-0.5758905677965596	0.3164483003669094
Si	13.693455269777806	10.839385643138348	8.060737450557056	14	-0.5995573351579906	0.2851067836248363	1.2559096155064562
Si	14.889351160755258	12.407342038821154	9.450831654907821	14	0.9822900162309776	-0.9770179647720139	-0.20349630121588808
Si	10.737977158370592	13.575956442136897	8.22437722069368	14	2.113396893944786	-0.9520509894501838	0.47362048280862545
Si	12.192727669215714	14.928610286543517	9.600855259130407	14	0.09044737139429718	0.428954984076481	-0.6323623250482919
Si	10.718839153812707	10.864864750233817	10.978513037574125	14	0.36723945752430665	-0.1937808655426445	-0.240842891543699
Si	12.133511274975824	12.28845046256088	12.34075226953756	14	0.8910078069392282	-0.1369131580716093	-0.663737266159527
Si	13.61823045905414	13.636385346939528	10.885887061747315	14	-0.8966264433953479	-0.26630943262923373	0.9122325384675827
Si	15.010421978972893	14.988596788843525	12.22010746854467	14	-0.4708462601681857	1.0785375441169966	0.1175599341057907
Si	13.583182349679728	10.875842886410002	13.604335743416224	14	-0.4446906628568513	-0.002749025808302326	0.6828233522825823
Si	15.054629458679372	12.188582193913364	14.89788789052808	14	-0.29789854681363703	0.0627239140587365	-0.019827850007917956
Si	10.857327522411364	13.719573402710395	13.62793054355608	14	0.6660522893897883	0.902878857312884	-0.14753362281754498
Si	12.195480395898697	15.247549720378444	14.91851695537258	14	1.2943003317047794	-1.0730811444065784	0.10983607661353385
H	-0.5175896272068536	11.538756820144917	0.6667038485073812	1	-3.3378798891230725	3.6993757544727	4.07040322146518
H	5.637151675413697	12.366685248830164	15.13439626842996	1	0.5583191198176036	-0.302638636581862	-0.046511809462542776
H	1.3543988765002966	12.37510892018565	3.0393871194045756	1	-0.05409888415176775	-0.016574373335802577	1.5548576875117777
H	3.739607053805065	12.238670349849144	12.799908718786947	1	-0.1488220036934712	-0.07576764556891173	0.2749419187416309
H	4.016170881999927	1.4792465012680973	1.4203741978635815	1	0.009486350189218352	0.03453354399703691	-0.037745111652433876
H	9.56537293989231	9.65848228141643	9.576621433153429	1	0.095600894898002	0.03689536134412493	-0.0013644855934025857
H	17.893387043144735	9.39544941569066	1.433531575997126	1	-0.12468909493749729	0.21828247080152768	-0.1873235345310926
H	17.723144006024526	9.60749129666974	12.325251796667905	1	0.12445769545868395	0.021471300528556607	0.19689241720108772
