219
config_type=vacancy dft_energy=-23065.807803127256 dft_virial="-64.58836770329057 -138.85256509726895 134.34332383710998 -138.85256509726895 -39.32058378858636 116.22619450740454 134.34332383710998 116.22619450740454 -0.3406982285453456" pbc="T T T" Lattice="16.12422222352406 -0.47093205238638897 0.48263232783891397 -0.375457804693785 16.40134929948373 0.21754443186212 0.27136569894373497 0.42363066293624996 16.53242466117395" Properties=species:S:1:pos:R:3:Z:I:1:dft_force:R:3
Si	12.108779676590007	15.192888366658558	15.855579057640798	14	-2.4379786288814516	-2.8839311902294313	1.5750231236482313
Si	1.1658154460895909	1.218975042421477	1.0365443475657072	14	0.23668927089899977	0.12499119981261468	2.3281955170375133
Si	2.561469489337486	2.652926911429906	0.10974051458919999	14	0.599893378623334	1.271477915330485	-1.5684994581194196
Si	3.977441666095352	3.9328240777593577	1.4732793190087852	14	-0.15449797579823007	0.2557010520783027	0.99313211025551
Si	2.77131756069849	0.1464616273680626	2.625067345204121	14	-0.6076820279696586	-0.2678757499902679	0.7373197293168448
Si	4.143629150960824	1.3139893482514646	4.202335484772755	14	-0.5132119051914577	0.059900326196149864	-0.02880023624363871
Si	0.1442151744811778	2.667858076738425	2.7227444723439937	14	0.3533256639737933	1.0084427853264597	-1.317806404983701
Si	1.3348642534898658	4.064738631619964	4.276673386589259	14	-0.06585397767548476	-0.2225147672690234	0.1411580529551738
Si	0.07289513681587609	0.06750816861442391	5.476632657195964	14	0.09620099087972456	-0.03367093816212723	-0.6631060598034305
Si	1.3825384379233887	1.378450603754941	6.85279000696221	14	-1.1961375874657816	0.7015800798141265	0.9715865047832012
Si	2.75336207591438	2.629521519031565	5.597072871957611	14	0.5948555548590357	0.8121849169183847	-0.5821892616098584
Si	4.144116527952087	3.9360404431354796	7.02057679844471	14	-0.10796585460365814	0.18492417904633043	-0.6235691448533855
Si	2.566649887158535	0.0030856450572728	8.213346451514724	14	2.5106432074394767	0.41322624728047525	0.8859836100331269
Si	4.069044332986493	1.58729648600477	9.791721679215831	14	-0.6604555073288899	-1.097364977044845	0.2001245536990459
Si	0.0434039873511255	2.9172934249063855	8.382427535536937	14	1.1144461152392489	0.4286276823692262	-1.8807234324453255
Si	1.3693340718885532	4.420925679185666	9.605077271366056	14	-0.48127389201511017	-1.379199772039261	2.283681456408725
Si	0.1505785104962545	0.3138368919208523	10.992031151170561	14	0.522820897104447	0.422424633673837	0.09910351167563972
Si	1.5035822255152764	1.7475805767177812	12.620662693060233	14	-1.0711564149639157	-0.33023893797258763	-0.9101412014001742
Si	2.8255019397769074	3.0852286888497993	11.195273811851955	14	-0.343979696135055	0.44222445863376525	-0.6949085757294061
Si	4.219739039321725	4.4992497438115135	12.544515686584102	14	-0.28949283219047695	-1.5524220794420014	0.20688913179635549
Si	2.8322897133704688	0.3070571874827754	13.834247539618064	14	1.7215563293857066	0.946618243908711	-0.7969521463386352
Si	4.2327287658206725	1.7585804494742516	15.188066239341019	14	-1.590303459676403	-1.225192363136115	1.1661713549594557
Si	0.0007149271759266999	3.021380689163145	14.05666089989953	14	1.162024933409653	1.5159905454976312	-1.8341049221119967
Si	1.348029887578376	4.559944317534826	15.211053649485262	14	0.7134156489343642	-0.7253208950087777	1.1202742967789605
Si	-0.20103978123412367	5.491621920423971	0.15605262557693927	14	1.0506500502620106	0.9062572897035586	-0.7174399429814599
Si	1.2150130870785874	6.790237913646366	1.6604579049516348	14	-0.7233365159226874	-0.2774065803015248	-0.043618801756312164
Si	2.4618218744282987	7.995075795658999	0.1702494977363686	14	0.3312712367586271	0.8466181878079357	0.05473240450265223
Si	3.7478693510680365	9.421829977975255	1.652595319847538	14	-0.2073046224160914	-0.12669764241359696	-0.361116370204374
Si	2.6790645198752983	5.385488318336343	2.926222752365533	14	-0.2566078809247189	-0.1283441782606198	-0.5210540335284413
Si	3.9248565936339626	6.71344860239367	4.365597093859547	14	0.1859024846206468	0.11379275059070973	0.17824316187192565
Si	-0.1875174904731986	8.29219178358487	2.975825464959852	14	0.6562576636726842	0.03262758362321114	-0.6603632046478966
Si	1.207224738204948	9.593259186243456	4.382113041305221	14	-1.187614887550555	-0.832973588984442	1.0743281304868504
Si	-0.10426155801522449	5.4990971860648115	5.6324383666150775	14	0.580620630254036	-0.525527242564435	0.3011144853480782
Si	1.380826163129578	6.902754217722234	6.979022261530631	14	-1.2281815301813193	-0.9216762083084866	0.9335881392567327
Si	2.628198177532107	8.179475364452987	5.706702032201124	14	0.968669328686961	1.2886680683904628	-0.6627445623954178
Si	3.9720095106231867	9.675096561167255	7.139416092758231	14	-2.010538025838538	-0.18987304256655144	0.36220626174958476
Si	2.7750519658567168	5.393178223513071	8.232400955275821	14	0.9232008737633344	1.4331873273306663	-0.374069341696748
Si	4.131904668041845	6.754441526086027	9.701840970105081	14	-0.8546516063807384	1.2653237176361787	0.5341437878238472
Si	0.09510952186470459	8.440838538258134	8.389123320757975	14	0.4615108338612601	-0.056821941796336574	-0.6617883683268547
Si	1.2918153089800586	9.822991270549366	9.854030084036042	14	0.07742163762136299	-0.1031329479333758	0.32442849705958493
Si	0.1159828132720092	5.691033346081323	11.228247608823814	14	0.3173366172550205	0.5603189255356148	-1.1989490911333636
Si	1.3606903925335565	7.072785848260521	12.664639590450758	14	0.9121998854300168	-0.6869417487843954	-0.7231737649559221
Si	2.603241893449646	8.350565668190841	11.185164773860974	14	0.9325931214978352	-0.20620418933906803	-0.7122499097822089
Si	3.9059102165563564	9.805064834725	12.563197395361817	14	-0.47310446197087164	-1.0050468694196082	1.0140323682924617
Si	2.9128650723764924	5.760589466357713	13.961228611815445	14	-0.9348382106633886	0.32531912794248424	-0.22544299911814003
Si	4.163138755091247	7.082352639002944	15.400009063465799	14	-0.0552353127032732	-0.425012708289098	0.6848581250329474
Si	0.013026844614176799	8.445525103763533	13.832525581837672	14	0.22711678868155644	1.657490298349853	0.12708279399055514
Si	1.3518336874737695	9.798590144364237	15.305533777222177	14	-1.1681274518870244	-0.9592750240682042	1.1028234336395195
Si	-0.3127830602145766	10.820390531028666	0.1225139877211635	14	1.910480119868059	0.37198520372423594	0.13378360867592506
Si	1.2524555823577643	12.307514907017755	1.3806212065802714	14	-0.9305313521416086	-0.9017712251409642	1.4088011647006577
Si	2.520928438352261	13.761132921773008	0.1831666018359562	14	0.24544491295623208	-0.21248874207310595	-0.15976231394123327
Si	3.8049844474184242	15.106950246917535	1.7310388079745562	14	-1.0798508647145284	-1.7902788892668804	0.46102258096096393
Si	2.4596448162785807	10.834138758143157	3.085180273916893	14	0.3407416460948605	0.9666402123683001	-2.4634055749450563
Si	3.7209345100607756	12.173019837233207	4.426018930127482	14	0.32251610892245886	1.2858074566112663	0.46656151315215894
Si	0.042482489794795596	13.762077012964696	2.9186829334808166	14	-0.5336033414855521	0.26838739994897737	-0.9798106993707588
Si	1.2204323319019776	15.147893141845886	4.379437309346561	14	0.12575430387163464	-0.11571130938060421	0.23749171286941798
Si	-0.1496973587173471	11.092877842584745	5.716919196875598	14	-0.06679963021223523	-0.1042927735432946	-1.0658046592400274
Si	1.1713218377922137	12.381559091574626	7.059299061783728	14	-1.5728777933690996	-0.2864373306280129	2.079848854616962
Si	2.435635851049999	13.630273813449776	5.887136417990029	14	2.1922503801189395	2.1205430240716057	-1.9846786198600848
Si	3.895828613694022	15.084174248646987	7.262540108634023	14	-1.4594737939027962	-1.2038282776994087	0.6464296135864182
Si	2.564656805753864	11.257821063674507	8.543229666032053	14	0.9329397064949914	-0.971671608369298	-0.2440050939769491
Si	3.9846813123960456	12.514968053030959	9.9995056606039	14	-0.8030672632320754	0.0256539746633735	0.0638698556999265
Si	-0.1551182173718342	13.87943642416236	8.469074127129497	14	0.21596744757126635	0.3616408756896841	-0.7005531803492593
Si	1.2206727927354157	15.120959914669724	10.015350254313265	14	-1.7889948792699986	0.7188784764080828	-0.3756731971954564
Si	-0.023298879545945297	11.237134976674444	11.278986458510351	14	-0.1341661891475631	0.18156014484544866	-0.3156396877437228
Si	1.295047812667149	12.661492619811801	12.682809714770755	14	-1.3276509101440161	-0.6995095686998112	0.8712362641378215
Si	2.5682346692956908	13.914829353948473	11.359657033551091	14	1.6178970761932963	-0.09322956446122942	-0.42461290141181496
Si	3.864589685151329	15.286188783863636	12.761049860179563	14	0.1455703267950799	-0.38629957548362837	0.6620123116002397
Si	2.5287474500167417	11.145067526427395	14.035418041171036	14	1.3525425520799657	1.1253817974974347	-1.1857048134082169
Si	3.9650748783998075	12.554219652969763	15.307441325578711	14	-1.0236483021898157	-1.0781325950290734	1.9675781983757796
Si	-0.1333072900972307	14.132399607108143	14.087149396982165	14	0.27116367947367326	-0.9919116065600357	-0.5420260254038252
Si	1.282556759977143	15.499153163072753	15.41737549989954	14	-1.6383191086407005	-0.8412798018317124	1.0963164802952887
Si	5.258352318353658	-0.0062519816693906	0.1315207790729624	14	1.0231703337107998	1.857224301150768	-0.16169912757890081
Si	6.749044874897994	1.2341208472658833	1.6671940359500952	14	-1.2497510469331055	-0.7233228890644907	0.19401586456890604
Si	7.878005260227679	2.501096068002457	0.2032329776948108	14	1.0943382718619667	0.23959821945821527	-0.19926246208520024
Si	9.18104315065558	3.915959542796753	1.5935420123497732	14	0.08311097947378666	-0.8329165104463345	0.8016420995531174
Si	7.929263763527416	-0.3597971877294674	2.9761659833212977	14	1.8315906382194238	0.9351416010911661	-0.371100743494105
Si	9.22073855414603	1.1694497937198098	4.531532821073901	14	0.6067546302806811	-0.43401440512546846	-1.562135972452053
Si	5.449754300277094	2.757253022689006	2.9766226975217207	14	-0.13729316743792722	-0.38814588621402674	-0.5294021553924301
Si	6.763842092225469	4.00546584309302	4.428421924630766	14	0.7675479574552937	-0.2525059394969547	-0.13946138055440804
Si	5.450470841284118	-0.0784386466337276	5.618888640725505	14	0.7756731644880257	0.23098630218837932	-0.6793168788469642
Si	6.835207317161484	1.1597361443475687	7.086151597405046	14	0.5493876141564732	0.0636615961689945	0.41990957844966803
Si	8.145894766988691	2.6705112150617283	5.913587109668221	14	-0.5110089821531548	0.746490347772749	-0.2120809647693305
Si	9.315039546631187	4.248113417667421	7.302964963780272	14	0.6831252000471676	-0.9935751117021715	-0.04913665088388195
Si	8.4608468161975	-0.1034643254533559	8.484928403825444	14	-0.4687261267211916	1.0364809459532065	-0.5015072053320155
Si	9.743527841169106	1.3011287282402684	9.965524833027573	14	-0.6461761026018515	-0.292984393215238	0.07061797872318713
Si	5.530697612773211	2.6195125385685913	8.365219254550691	14	0.07620113392588869	0.6011642759830832	0.5443024820542843
Si	6.786479301021686	4.078139885048622	9.86131491760745	14	-0.4541695568406412	-0.9247291387656303	0.6067507736227009
Si	5.514338206943935	0.2637032288956538	11.243796871442447	14	0.18574770408037383	-0.3725840141532984	-1.597696673024489
Si	6.997227890134759	1.5574293138944417	12.48027068444761	14	-1.4011755234316305	-1.3937565990303433	2.1061849435217703
Si	8.264290257750567	2.7303617551213617	11.203878759260625	14	1.2681125955769432	1.3713949247294195	-1.3467444524724996
Si	9.476529169173583	4.019956432512086	12.803843819376059	14	-0.7631508531367766	0.5277589619823235	-0.26889879279715484
Si	8.269378667199092	0.18381374810581308	14.069163249407215	14	-0.33204539657052373	0.2959475920967087	-0.07550924948423685
Si	9.593778839856657	1.4131963872711981	15.584671686728582	14	-0.42653891640713787	-0.1511766219456628	0.3676420926174418
Si	5.52675663723458	2.883900031849331	13.845357152889122	14	0.9962120373185154	1.5063548140893124	-1.3284348401561292
Si	6.796743266797971	4.199685574111645	15.331960261433913	14	-0.040559186425335944	0.3581192327326773	0.04051393497170134
Si	5.342526520705768	5.276343307421898	0.1999633558924914	14	-0.19696209415526372	0.4860993424799642	-0.20616793675405395
Si	6.549136389262796	6.764576385374559	1.6621572690966704	14	-0.18106083619227592	-1.0534762092299172	0.6765130884953428
Si	7.893722361280388	7.998459999469198	0.3536856093655071	14	0.7933001483418969	0.3944489509063697	-1.3480922258813213
Si	9.344224068187527	9.406890743511251	1.651349442240731	14	-1.2116742626943726	-2.1068369758309604	1.2584156718620045
Si	8.023333978165718	5.38794134160363	3.028607424815063	14	-0.17908776996959427	0.3985025555541152	0.13703837090070053
Si	9.29554123931844	6.790775319401633	4.532070226829169	14	0.5915393432171088	-0.1054965650541879	-0.34887713754887306
Si	5.145584256626672	8.11365526316592	3.007984277227778	14	0.6673437555920987	0.5222069171539958	0.12567845626469026
Si	6.522550135772466	9.673547283314232	4.367525622020342	14	0.5057096769777976	-2.313248653369364	-0.11634354417882864
Si	5.412411862525926	5.380328900319553	5.636329313389703	14	-0.7023064170670683	0.862283161192002	1.1227453861021548
Si	6.496452873104496	6.952011570461816	7.18876866153253	14	0.45560680471460396	-0.7999410562733075	-0.8291585829104061
Si	7.908847186320536	8.23738446570305	5.833121491176786	14	0.01762904073812732	0.304737944075763	-0.10999908469083124
Si	9.262268883593654	9.50907207324257	7.38254297516841	14	-0.18161156695185166	-0.8259539572393737	0.9303801711487839
Si	7.819826649184434	5.569655495452376	8.573936030312769	14	1.2397661594223106	0.9273403533287727	-0.46087705639984355
Si	9.184956691065564	6.936614007966293	10.035068042655189	14	0.7040982203646795	-1.9338524956703331	0.09549625091147196
Si	5.298100978270305	8.429310942732979	8.486564828557698	14	-0.03500894137073229	-0.7267864250412622	1.090851595937314
Si	6.559034015380084	9.62837130941871	10.123893306228563	14	-0.783541775209807	-0.18117267927370237	0.4584393914458111
Si	5.611565075207773	5.663929052808887	11.196965106841505	14	-0.1304745961288945	-0.24527676266829435	-0.5689778940328094
Si	6.842405003853658	6.948998547803903	12.719745467085504	14	-1.6024426763349504	-0.7161479625580854	1.070690787790437
Si	7.955517567811786	8.25888876506924	11.427775230320144	14	1.372847856345835	2.0463617504852247	-0.5026822004633232
Si	9.396709083120909	9.635346287419512	12.832444134075322	14	-0.12697532178817297	0.38652891807818557	-0.4784184224465538
Si	8.145097534426823	5.627377392295198	14.089836425758504	14	0.8531477668789837	-0.826848701890785	0.12559309556806136
Si	9.582617583990498	6.89315676418897	15.51653735164856	14	-1.0593591553129482	0.2518027421918942	0.44912684797623476
Si	5.339093901962661	8.373549850672891	13.950035079327348	14	0.4898138183359821	0.7934467013451454	-0.4013048032425446
Si	6.738774453797322	9.739562658164024	15.369454399308191	14	-0.8832330415616324	-0.7121254682847138	1.5144453112002223
Si	5.086453485236256	10.780267462297537	0.2920614689303806	14	-0.22408854083548604	-0.26585820364554774	-0.4426947137968203
Si	6.262618430150267	12.007774829728325	1.9545189106110743	14	0.005831266866095843	-0.22135622721176468	-0.8278324067862738
Si	7.515601735276718	13.21892601899203	0.52998213222196	14	0.4735227808064599	2.2981837759670203	-0.6185950845010272
Si	9.084352074315914	14.545051377092182	1.8420445661437257	14	-1.2208808766247587	-0.17939373150269192	0.8915814205361534
Si	7.9412545285773835	10.733232354978389	2.928407879670736	14	0.32719423505246825	0.6526581162244769	1.2993641236328108
Si	9.218450141650624	12.0330877704832	4.590019673856654	14	0.21181999757933545	-1.0880634893281453	0.5039487269440281
Si	5.084066629043942	13.627446381368006	3.1090794986308845	14	-0.6386533055456304	-0.3141906127852873	0.5572819359314558
Si	6.442605784725331	14.757507399505778	4.641863997844567	14	-0.7566292444922209	-0.19331729525342184	0.496653986929704
Si	5.191939941054028	10.874521653680885	5.7260841436748935	14	0.47075498592932047	1.669356720733932	0.3402168834990183
Si	6.547719445559719	12.182612449273181	7.339582791368932	14	-0.009155448934515295	-1.5182384628790369	0.008776725120857483
Si	7.844644143792562	13.37068908151341	5.966551432437381	14	0.9798626356982257	1.2632187537105732	-0.5212538084118168
Si	9.253631659563046	14.960787178302398	7.1932099247112	14	-0.5737557790492406	-2.0343714008247145	1.298273203645472
Si	7.929956097067987	10.917506044946817	8.922922163524103	14	0.7116845237223084	0.6467695137097417	-1.518920834231004
Si	9.108536947134057	12.479507342338776	10.302357204248153	14	0.6361161388157082	-0.5794685179600777	-1.1715969014060321
Si	5.375437378264849	13.653956784796783	8.589241604435768	14	-1.0860194605986278	1.3408810467899022	-0.09090888479926376
Si	6.509973550034324	15.201109222266165	9.89470024150902	14	-0.5111223678977734	0.13623001538804597	1.323276174441784
Si	5.251646850146038	11.20661581680097	11.45267664414531	14	0.8660472593806987	-0.059253178987068604	-0.5790648544248144
Si	6.603232007630885	12.549313606435186	12.890264474615055	14	0.3418384796244357	-0.24477642557299353	-0.030411033726711476
Si	7.772115346635683	13.968321399486321	11.42638249408352	14	0.2789862674102238	-0.06241640986244679	1.0808772499583315
Si	9.216587780564803	15.175620373921726	13.005238643451502	14	-0.8353217794733332	-1.7180025476121978	0.5254655360367514
Si	8.062866384715381	11.079289384748849	14.209989378584902	14	0.8229233953985151	1.2105769149437333	-0.8774341706225706
Si	9.313222372816078	12.549750954662446	15.732663225976506	14	-0.24050453408356753	-1.570471238789441	-0.3228374970874774
Si	5.274321177057483	13.935960858331283	14.286667335491913	14	0.6661782735504755	1.3935383121886629	-1.8558248485250115
Si	6.442873680687416	15.416399132085916	15.692808053207463	14	1.3198478626078984	-1.7340830116159998	-0.27740735163312086
Si	10.699771181015263	-0.3796456963902405	0.4695021980345356	14	0.33238915335182745	0.4709696732235528	-0.9245417051877916
Si	12.082627543664742	1.042923821891753	1.7245786420936655	14	-0.7529628483056898	-0.04328301540150082	0.4668183665736417
Si	13.38671281047453	2.103703071039607	0.1317321909466563	14	-0.34980016435880623	1.9933357885835554	0.9132118724840271
Si	14.758365957649328	3.546973200801537	1.8121370482559749	14	-1.1377071621811605	-0.9182476393640692	0.7923020452566154
Si	13.475859226436189	-0.3638801804046244	2.9853406131071742	14	2.0992614711156756	1.0981067409297078	-0.8210084361560688
Si	14.966059564495971	0.9114546854138912	4.43628612356596	14	-1.8320197556973565	-0.52210664404651	0.7595284228512199
Si	10.54927981739824	2.4548017091567838	2.993456569693484	14	0.03745020587221289	0.051338031258992736	0.3557723277964462
Si	11.949735008159415	3.813768530078851	4.4469761407518265	14	-1.03126211637437	-0.24554647161637785	0.5585919140920713
Si	10.802322078067773	-0.183282797674933	5.619722991402602	14	1.072672595771207	0.7267452873561397	-0.8868757835792184
Si	12.10813737181344	1.2727220732726345	6.986904212607891	14	-1.040984494031978	-1.497755495235545	1.876795811958267
Si	13.386580476324584	2.3740633532099733	5.61851100424883	14	1.99297146295969	0.989904344636596	-0.06228322660686311
Si	14.634936927696222	3.5944763191387885	7.455478457761709	14	0.2473997243311406	0.785661651546269	-0.818912471099084
Si	13.381467859409605	-0.162432099902985	8.57469130326612	14	0.6992036071667136	0.768367111610293	-0.5762438376675478
Si	14.819007274946443	1.1478777134475473	9.974956061957856	14	-0.6920083689282792	-1.323345080064364	1.7636558650083431
Si	10.88465489913832	2.6886474489286907	8.523768476834537	14	-0.4173392444611161	0.3793550200139084	-0.7437094402584769
Si	12.097024530880185	3.948762273672342	10.04783667429386	14	1.4047791846483502	-0.47281495551182307	0.40514166371180155
Si	10.943162731725332	-0.1365510906019997	11.462916402455141	14	1.2156615328248581	1.3298720880300918	-1.2122257647855443
Si	12.181001845838473	1.258191138076147	12.99039785268441	14	1.025988265141682	-0.13287292317152863	-0.8850083897851947
Si	13.659855337455951	2.5165033134845616	11.562551106715555	14	-1.3532964001598329	0.2046738674525159	-0.5690599122925221
Si	14.90369306175627	3.8959706308305493	12.978817000733056	14	-0.5704423956231658	-0.022253944988009682	0.62086819871457
Si	13.718976425859786	0.031130801859200998	14.483501472887513	14	1.3477322711365007	1.733593987384108	-3.182607496402414
Si	16.141863011244276	0.2950551256151301	16.527939824555663	14	1.5752421818215079	-3.30144938362083	1.9588061012444988
Si	10.80149095505287	2.6969974110240513	14.15957652277994	14	0.4534558180037681	0.33306818226687857	-0.05770897313178766
Si	12.129974120385594	4.122487963591433	15.444048900269104	14	0.5253050990647742	-0.6512422085246714	0.5672454832680937
Si	10.635201798828295	5.064536045109258	0.32775618513161475	14	0.8358619687010963	1.213536771388288	0.2077157421567831
Si	12.111439270237698	6.447611888787915	1.8855147205698242	14	-1.7776295653128158	-0.62461867004507	-0.47181710953707356
Si	13.353517918642394	7.78452732160194	0.6233551718264002	14	-0.2073426747748296	1.3744982488508382	-1.208366021478938
Si	14.550673964633782	9.24313368827771	2.0964795630498827	14	0.25201023039123016	-1.3406105665102226	0.10903312042205161
Si	13.337705601554967	5.045763961790117	3.2039017585603413	14	1.403663324939406	-0.1736061734270386	-0.3706582562685075
Si	14.74071710077363	6.3000819052337045	4.657805421419744	14	-0.9319518878309905	0.6654681342610507	0.8569681722741919
Si	10.754063686777172	8.002504260198029	3.05948001369876	14	-0.47807492277578195	0.1426215261034021	0.7206106300622666
Si	12.081936823955267	9.37150104138733	4.559006681667527	14	-0.973527689299913	-1.7615447304299698	1.8828903600091462
Si	10.788183303827834	5.435704286747483	5.909158757138327	14	-0.20993949114817917	-0.2652539938953129	-0.24799982031286322
Si	12.165806012230064	6.691221306696066	7.434411506622776	14	-0.9576498283953384	-1.1439181813030423	0.5004587085824592
Si	13.496738973167881	7.945195504116014	6.1988817848092985	14	-0.14076698783597927	-0.02556038642972011	-2.803207996266466
Si	14.728125990555615	9.250053796021216	7.542054040786006	14	0.665821661242571	0.33142344619357983	0.5594092684733464
Si	13.56946143005639	5.298672274478607	8.815064989824986	14	-0.434197982045327	-0.5891667272276762	-0.5558750271002707
Si	14.961461759700903	6.603993735908622	10.152117598282247	14	-0.8963425933680035	-0.12362208622963583	1.3766677475199791
Si	10.748970435835357	8.003827601697488	8.783817992126808	14	-0.4352829884904294	0.9085368316804019	-0.9208560257113593
Si	12.112807799007868	9.371370321068481	10.093876047826223	14	-1.759312753901549	0.620937361447682	1.0206647915763156
Si	10.693562772785489	5.247857574730517	11.296799926157933	14	-0.21767928949342094	1.8175452040765185	0.6173663532685283
Si	12.086691170366736	6.726255965978669	12.782933409853527	14	-0.2817967426356777	-0.5971551514573762	-0.05925009366068442
Si	13.407892729790245	8.043424561491026	11.444602647167521	14	1.239740705479641	-0.188475903935583	0.3580415853520089
Si	14.700987806830145	9.384702179759971	13.036708349841051	14	0.19014069463037886	-0.49780892743951466	-0.902097241295559
Si	13.547019494822898	5.473622862200245	14.266634850086092	14	0.2114057925122596	0.08946495205146861	-0.6129018859906231
Si	14.889538149205361	6.840666907762297	15.740182065056963	14	-0.7713588497608173	-1.1369769682702386	0.7894566029988076
Si	10.804539481994915	8.230821014631957	14.123199156024718	14	0.12013952407349526	-0.000951566078986804	-0.2430630409876468
Si	12.061646125573944	9.530432741641139	15.634442237756977	14	-0.3472807382555931	-0.9495277066889907	1.4522353610949834
Si	10.543815385304137	10.675978469153666	0.4076682595568121	14	1.3955442885594422	1.4308147113412335	-1.3182846305732485
Si	12.037871165854414	11.943421700908342	1.8312835403895966	14	-0.9614380949740445	-0.29191635606524846	0.40278833101226996
Si	13.319241759975336	13.344693490204545	0.5796897438375769	14	0.28855155053277065	-0.28725185679343584	-0.44949348759488794
Si	14.696630462868516	14.742300269079688	1.9234994630975595	14	-0.11952271590719174	-0.19817308476105347	0.07075090486823879
Si	13.33628865785189	10.698442998022514	3.3713964466143014	14	0.8468940674087877	1.595055119418569	-0.5224336886432328
Si	14.68968937532075	12.147106551310284	4.75868277562477	14	-0.5298240737754665	-0.6440202307909073	0.41327047029198166
Si	10.559028971054614	13.21479783904616	3.1889044261768493	14	0.3280848659353675	1.027612689482952	-0.15036826643300824
Si	11.88015468041657	14.788672091818013	4.476430172101347	14	-1.8237320548083913	-1.3305722000087683	1.6727238402611984
Si	10.812216476522867	10.610318137145194	6.174240197790732	14	-0.4445916753020256	1.0551772525097274	-1.5007495473808576
Si	12.093275601242087	12.063828025216953	7.530327944035931	14	-0.8123047304263035	-0.1784871597668077	0.2994687208326514
Si	13.133068590805854	13.506904495247255	6.076971369918376	14	0.926996596547469	-0.09133363139815222	-0.5406489413943538
Si	14.45324213982064	14.789427364771363	7.558324685904952	14	0.10796482616153008	-0.3638013754902046	0.48605049147888135
Si	13.471758481618966	10.6608633271001	8.918695539881323	14	0.2766483613426131	1.0486816120289053	-0.9051113480623685
Si	14.736830995492296	12.077226050983416	10.28139515213052	14	-0.7459771551508475	0.04200157650993902	1.43971124997001
Si	10.548519702951602	13.536749073722227	8.740757750799322	14	0.09646272940131562	0.05632803246433613	-0.14219600817291755
Si	11.882662573941154	14.86991719072925	10.226975153711955	14	-0.7201270051515466	-0.06355798062459253	0.3752469079333758
Si	10.648073715657167	11.112695688454677	11.41230020393197	14	0.6416270459589135	-1.1775348691429144	0.6432540414055032
Si	12.049673112666044	12.314476974369784	13.007302733424437	14	-1.0069795692887635	-0.8211202792374952	0.07839531520610306
Si	13.272285730379933	13.681913180888381	11.706393486213349	14	1.1788913843098245	-0.5719644899726934	-1.1158237134697844
Si	14.589050868118065	14.999433591579862	13.136180057160676	14	0.273294868673544	0.03193004274985496	0.5196561235658769
Si	13.299314173590814	10.731802500626534	14.283851200227822	14	1.2100912331487574	1.648905377685878	-0.2520086877280381
Si	14.74666245453461	11.998982677912414	15.787414059769935	14	-0.7877535028347415	1.67108810305652	-0.838651875083989
Si	10.665745166168223	13.714506113721374	14.353576772769387	14	0.28791700173975815	1.0882074712260739	-0.061661790450983314
H	12.45490771492873	3.065062255462937	1.1136370590646203	1	0.2796200448716403	-0.18114311156252066	-0.2911008014576975
H	12.750369525980279	-0.9604812603066164	13.670609907885693	1	0.05033118641562275	0.03902757898612374	-0.01304296017857919
H	-0.9986483657483014	2.030322171063564	15.072632128641956	1	-2.1244624170216397	43.94445795616211	2.377341166790015
H	15.141965540226973	1.1388241209939385	15.528402237872971	1	1.0481578778751912	-43.22796572260167	-3.326392190552651
