226
config_type=divacancy dft_energy=-23069.124480319497 dft_virial="-64.92052565045331 -8.096351511814634 -1.0913330261667415 -8.096351511814634 -60.29122490768824 -16.953090294568554 -1.0913330261667415 -16.953090294568554 -74.58886949959837" pbc="T T T" Lattice="16.249967316 0.0 0.0 0.0 16.249967316 0.0 0.0 0.0 16.249967316" Properties=species:S:1:pos:R:3:Z:I:1:dft_force:R:3
Si	1.292018651327844	1.356904770820632	1.55114063014878	14	-0.9991112156775143	0.6850468441634463	-0.5820352524011814
Si	2.75932570009338	2.7075208042899717	0.212565822460596	14	-0.2680091903563836	-0.9334824668280745	-1.0606675908103715
Si	4.112801727810336	4.01829191790048	1.4449470937387199	14	0.4139227597117032	1.6570364982608465	0.02760698626455798
Si	2.507012457577848	-0.036286177016628	2.92913785854558	14	0.05797765363774313	1.7415081066700553	0.5933085207879027
Si	4.066083071776836	1.247688740489796	4.165630371554652	14	-0.3009108538067225	1.3074695331545778	0.013080755426785369
Si	-0.119973508694028	3.054652606094364	2.7801906581271236	14	0.8951454867309425	-0.6091051347643606	-1.3031567610905614
Si	1.594901792130768	4.074858054127476	3.996809461108728	14	-0.6712690620843687	0.3998559853946411	0.49338714050992394
Si	0.02226245522292	-0.014072471695656	5.34250175448132	14	0.06372587380199819	0.2610636064445356	0.06593753859838958
Si	1.265498704668132	1.357652269317168	6.87747366715068	14	-0.39733707351249203	0.614929973867156	0.5479002297287675
Si	2.632543455093948	2.6980308233774277	5.5418563535140075	14	0.721192728306748	-0.3301944578505491	-0.7706895910459827
Si	3.952284550662888	4.268752664141988	6.742907687806884	14	0.30138188030137364	-1.1509743227436566	0.47125995101419754
Si	2.6804483587415158	0.048457402536312	8.311305783245256	14	-1.02740700105734	-0.15736527245125922	-1.2868176438915526
Si	4.227412747290084	1.25579747418048	9.423096047071343	14	0.08871881728756162	0.9616499540524247	1.0011071647375451
Si	-0.160500927180132	3.02769391031712	8.289108327891599	14	1.246215005786306	-1.8202006416511678	-1.0959372422605669
Si	1.267269951105576	4.177850346976284	9.67826928383449	14	0.09490412535624186	0.3702918737603864	-1.348123593366227
Si	0.15261969303187198	0.02063745849132	10.787378303053439	14	0.05948200736056178	-0.7005153851010532	0.8384703550483864
Si	1.608681764414736	1.280367424762272	12.16131303962124	14	-0.15185462241858586	-0.6232492993515591	0.26201311563926627
Si	2.6097447509496	2.623102224083352	10.572017486214492	14	1.0101232597637084	-0.7572311402476677	0.5463436825679499
Si	4.15089165119904	4.154856643224144	11.887501090346639	14	-0.3187723224657912	-0.810386685857473	-0.3782499589473088
Si	2.9958927242797078	-0.054827389724183995	13.608762628326623	14	-1.2249200830827114	0.39136079630633985	0.12678094622596975
Si	4.15194789907458	1.578066825991392	14.866477598650391	14	-0.6871073279670129	-1.3140708460640578	1.1382812899991497
Si	0.168479661132288	2.492143737483708	13.50973532750292	14	-0.728797800733214	1.2991682054074156	0.09683528256220508
Si	1.621779238071432	3.9033558990744117	14.826031430000867	14	-0.7318129359421517	0.9398001868207425	0.2293405376729525
Si	0.111929774872608	5.3241717913488715	0.058971131389763995	14	-2.265694003588969	-5.678745298957211	-5.487998337692342
Si	1.355133524383188	7.1019019657519555	1.748772732645972	14	3.015561755310265	0.3282532733338373	-0.53016397389879
Si	2.739565739837124	8.195102266968538	0.09353481187089599	14	0.0610555238164924	-0.8166565832911861	0.5985618031780292
Si	4.050613102892004	9.5484807948816	1.53740940776676	14	-0.690406056092763	-1.1682071561519491	0.4212046441994266
Si	2.874277968886764	5.602436231668056	2.75835070205442	14	0.16303815922963394	-0.8803770577720119	-0.3290207482719015
Si	4.520822157147779	6.757987657476131	3.945313314684324	14	-2.72498957310639	-1.66785956610601	2.88453334309541
Si	0.08919607059752399	8.253260899992503	3.10520625441444	14	-2.856730695715989	-0.5922633664752626	-1.559501360830497
Si	1.531461919729104	9.467734707288395	4.1006792521926005	14	0.2899700293378964	2.4487374190936113	1.495393420777925
Si	0.257106982873752	5.343753001964652	5.496275195192628	14	-0.7601524301124198	-1.5297133059228576	-0.7798753790232757
Si	1.476927029416608	6.615849193363079	6.801732569490804	14	-0.6242288904785356	2.1210114794609365	0.9539116983703751
Si	2.7125420441906156	7.946461517066424	5.315559308671392	14	1.7561101851147727	0.0409872754611406	0.39012666575266874
Si	4.054285595505419	9.412858567662264	6.722221479413616	14	0.0719994336117027	-0.08842391150734064	-0.9849737359641481
Si	2.6962595769399837	5.499931437838727	8.314604526610404	14	-0.11042151729493158	-1.3292496234320843	-0.37482010445023123
Si	4.0622805794248915	6.848044976341404	9.421779799718747	14	1.4709229258934156	1.3683785039678218	0.18875821129973525
Si	-0.122654753301168	7.920087820112556	8.25896463852042	14	0.5771699498038653	0.08991052460345025	-0.9605340943434805
Si	1.1915938533149641	9.352928688200857	9.557125777493711	14	-0.7238993308772679	-0.7555735486477682	1.1710790807945546
Si	-0.205952085762984	5.4801227276805236	10.796835784031352	14	0.5616191334960137	-0.17015086498729157	1.2483199697119112
Si	1.291514902341048	6.619115436793596	12.240401630548211	14	-0.7908935937622383	0.792503105692651	-0.4115506579433346
Si	2.609777250884232	7.9982339129352	10.880393115970225	14	-0.45176480203470676	-0.20945200957947907	-0.7426074645182613
Si	3.922839609886296	9.338953716309096	12.104048154799656	14	0.16525573756826165	1.1363308495032851	1.522586716196471
Si	2.906257904564652	5.407517873712636	13.333309432353108	14	-0.9516049026771383	-0.8042322310526346	1.3222924695462956
Si	3.988196978431248	6.676315321745916	14.941373698009835	14	0.9487800292618916	1.1676116881598029	-0.004228696920047546
Si	-0.133070982350724	7.9028466047902795	13.650573794230692	14	1.7594225400987191	0.8202458463181129	0.8967832808198769
Si	1.4380896075313678	9.535058321878584	15.06705094523178	14	-0.6764896914369294	-0.23320568030073116	-2.103551103231811
Si	-0.16875591057666	10.65391732148713	-0.052341144724835996	14	0.26160302434070265	1.293431040996037	1.2833368815091357
Si	1.221575043012984	12.228945403590432	1.335276064323036	14	-0.9623035290248065	-1.303808793399751	0.5340304020792287
Si	2.5561523587414317	13.353605641530791	-0.067989863250144	14	-0.09952928671665624	1.5647299606095502	-0.5544269805839634
Si	3.96426077657478	14.78657650935762	1.131176474834076	14	7.8645182934431	-6.856324391111632	-9.732042699616914
Si	2.7048883095847795	10.978006669637436	2.74591947705768	14	-0.5228553499157371	-0.2067610907514121	-0.03263144028119136
Si	4.102807997910996	12.211866687941315	4.111192981046052	14	0.9057163291441993	-0.2642625756838638	0.48475542572912284
Si	-0.30985437678148803	13.543827758931887	2.5976872752011277	14	0.6222779357616072	0.012564734589031646	-0.5403463222981725
Si	1.269593696431764	14.722454138328683	4.0060231925769	14	-1.0462161791374152	-0.48503747598274305	0.4654399970115103
Si	0.058207382925912	10.939201747686827	5.4933014511738	14	0.55464475320458	-0.7504781321242986	0.3454025458192249
Si	1.553870624657868	12.266986577077189	6.813546295729536	14	-1.1444545138728253	-2.24358558316208	1.282090152539396
Si	2.721902025364632	13.51488656714209	5.409354120019344	14	0.3289767823709269	0.5149152624660558	-0.6529995590109925
Si	3.868613468952804	14.912497506089304	6.833290006018476	14	1.6165256486155295	0.4386524220124835	-0.18459224934949933
Si	2.696552076351672	10.409452813185228	8.30105205386886	14	0.5810744303430422	2.9103294998829883	-1.1796596305794846
Si	4.046436861291792	12.079933203302712	9.474575943528432	14	0.06942138630719022	-0.7930494655731826	-0.13938579005799573
Si	0.024894949928111997	13.441095465560137	8.160522336520092	14	-1.4156202502307547	-0.761422041919509	-2.7599388648336944
Si	1.24019750555712	14.775624031386636	9.3047312851416	14	1.3984164703125799	1.918203720249784	2.218789329233508
Si	-0.17621464557470398	10.682452264094028	11.006054113224852	14	0.8712177521795164	0.9394515449393303	0.17688510404182342
Si	1.285811163813132	12.389121331424244	12.29695151680789	14	-0.5641115629933652	-0.7591299015265969	-1.4055695424237638
Si	2.716897035431304	13.562043972293123	10.65656606615964	14	-0.5804663639348271	-0.3717322069607334	1.4062092334274165
Si	4.107699238073112	14.66543300301684	12.268091574854676	14	0.48222828630994924	0.7910110932753691	-0.48056580960994144
Si	2.589903540856764	10.997392880645425	13.537100272463062	14	1.0727540998098555	-1.489523844442559	-0.025714395638396982
Si	4.101053001440868	12.30179400706806	14.815176451833779	14	-0.3931052912660603	-1.2595400162185055	1.3197087658100786
Si	-0.20328709112315999	13.506859083287987	13.717052410520447	14	2.060432124349736	1.0902959800776302	0.35867073482384915
Si	1.3912409517593398	15.149503279393162	15.069179690950175	14	0.5428513502115927	-1.877016412794736	-1.3778885083259853
Si	5.424759089034912	0.19062836658399598	0.067128614982396	14	-0.3968753029969935	0.4067270072522049	0.1933409494223672
Si	6.817820037133644	1.5636531049821	1.4507645820378479	14	-0.7708641690972207	-1.3298471483084868	0.5042482607138254
Si	8.258265889925832	2.6895158405038435	0.163702170741384	14	-0.857179002910444	1.8321930481959343	-1.1952996642419453
Si	9.466402209968484	4.179150344361564	1.47435953458068	14	0.9162663456043629	-0.8036763580824187	-0.41686436130848475
Si	8.038078832794032	0.007442485030728	2.7336832516687317	14	1.281186923240428	0.4827661615429242	0.4131928229113132
Si	9.542013307889832	1.512936956988864	4.2525189467933036	14	-0.9422051987372089	-0.911839673574664	-0.719195750804589
Si	5.408622871490124	2.7973343736455036	2.883914199505152	14	0.55666101399664	0.1761849920631471	0.4998521848374362
Si	6.895787380315811	4.428879842073852	4.058153087726628	14	-0.4288084310732326	-2.7268394833842367	0.2131816549568859
Si	5.440781556808488	0.060579878154048	5.526678884040864	14	-0.8231766492725497	-0.841689893130276	0.6928892296109619
Si	6.830657511313284	1.345351044058956	6.849864972680796	14	-0.39529947254627473	0.9141161302251232	-0.19513583804636256
Si	8.084163740102207	2.854209259251504	5.545203846781104	14	0.008778782005113601	0.2782655865889863	-0.9323552942557216
Si	9.458114726637323	4.266721418227489	6.771572630152308	14	0.3751949716059088	-0.038744500290375426	1.268390532062051
Si	8.12152241496169	0.049123651196268	8.255860894763064	14	0.49314725638355406	-0.4256837667776566	0.18675069226576363
Si	9.562114517459724	1.475562032162064	9.503517135318228	14	-0.010486510158755956	-1.3068609525252988	0.09095953557407067
Si	5.327145535367699	2.776404415742496	8.018335122505093	14	0.4818835010865173	0.01541531905747982	-0.2398946679016284
Si	6.783418856325671	4.207474037393352	9.236578922218294	14	-0.37329852432176763	-0.23463855729564967	0.3274359189525622
Si	5.443625301088788	0.00966873055302	11.011839101589347	14	0.6962090408003371	-0.24241846488388574	0.003886482801935836
Si	7.019563381361784	1.402193429730324	12.317377725724102	14	-0.7757801224693439	0.08513572491340327	-0.8870912422050466
Si	8.152884851881572	2.8860916951254962	10.582092465950412	14	-0.3062222431770844	-0.0767240967480068	1.9692640721342007
Si	9.6183556543404	4.343632513534116	11.861679892281515	14	-0.47668215502385775	-1.049304590847977	0.5923849797569055
Si	8.427249300044915	-0.017501214799332	13.710796173103788	14	-0.5484026237083244	1.775976344591961	-0.05187127850239145
Si	9.567103257425735	1.88767745326314	14.759536563743795	14	0.4869660620833861	-2.743199940757403	-0.04950534738679119
Si	5.289494361096528	2.7746981691743158	13.373170602179256	14	1.7609736879383646	0.4041906118538787	-0.43991097806669605
Si	6.5822930108555395	4.0774255489634035	14.854468872803867	14	2.0654637774612654	0.4005635535787459	0.26549053558476654
Si	5.515677656167932	5.535031367241287	0.120461007713508	14	-1.067982899667257	-0.8783407423584548	-0.7611595320663219
Si	6.833501255593584	7.065648288669959	1.201051334292876	14	0.356480924422679	0.5787205834224466	1.1699804474912552
Si	8.272257111784908	8.490039173753939	-0.06491861942742	14	0.3321572396519501	-0.9418694123823976	0.19609254633598963
Si	9.77211284508439	9.594094453137611	1.55463437312172	14	-1.1304008521928957	-0.4787925182706354	0.08872447371926596
Si	8.14107112564284	5.632904920385555	2.572191076482324	14	-0.10025536685906605	0.9741637807561174	0.5407145045800177
Si	9.485382171793573	6.807940057005516	4.138931675254463	14	-1.0076876516939324	-0.20368142079893875	0.28313603139694277
Si	5.489547708723803	8.308332039226428	2.9197128775023	14	2.341079840017839	2.021680939185528	-2.18632038280855
Si	6.971869727289324	9.616909407249276	4.323563803898856	14	-0.8951670840156318	-1.5207648309666142	-0.6058406023393685
Si	5.63118242385006	5.450661536936615	5.6182636998338396	14	-0.4739464989632203	0.710218736579292	-0.10559066750890532
Si	7.100926967712996	6.785385102370908	6.941076039225504	14	-4.256173808382904	-1.7874591580622743	-3.467529931775795
Si	8.116663674734207	8.138178631460592	5.677234831223603	14	1.9737992448084098	0.7781478533586683	-2.820251082102132
Si	9.728871682056516	9.299352545960003	6.722627728596516	14	0.417147182893701	-0.02682922690521319	1.3422943833843874
Si	8.539780323708216	5.682158571320351	8.706602488174273	14	0.14307558330294023	-3.727884170262502	-0.03923892384343991
Si	8.170028567399951	7.958112743631996	10.590314949412308	14	1.3994698521622444	0.05889450979490794	0.5445685914549196
Si	5.622878690551584	8.236474683755075	7.8766191575422555	14	-1.0620408181618628	-0.3451364364185896	2.0520032697786945
Si	6.924533572497816	9.545490800895456	9.39516235325514	14	-0.3847327439015301	0.16028347698962728	-0.6819741161953373
Si	5.536948863384575	5.560755065502516	10.68256601386524	14	-0.22655757327442427	-0.5258820550986154	-0.08744380615930018
Si	6.882299907443532	6.668206588055232	12.17707550791776	14	-0.35586900135648375	1.0568330443359026	0.27337071628048837
Si	9.428799785599258	9.570158251281143	12.19717671748765	14	-0.11347187664675525	-1.1842043163433784	-0.25067299851422115
Si	8.36068943391858	5.487012713822508	13.504892837242751	14	-0.6674298876203236	-0.5417527169082934	0.6448360425089904
Si	9.680983028376264	6.9910934386241514	14.820473941178795	14	-0.8035370041740665	-0.7863080274237543	1.377878481015237
Si	5.427424083674736	8.13546488691882	13.477771641792348	14	-0.13617036574461855	-0.5956142880390115	0.8051681133891685
Si	6.63738040005678	9.65093683880898	14.937554955690576	14	0.5772221432418643	-0.4456152323299765	-0.5856437987180093
Si	5.217994504906128	10.784339559165348	0.151140946006116	14	1.4541690894062667	1.816611378624241	-1.2618501543486584
Si	6.760603902214008	11.999235865611455	1.5932280454972199	14	-0.15858629036779753	0.909791788187166	-0.8651054635019284
Si	8.039573829787104	13.67795498915815	0.28250568178866003	14	-1.502010931650922	-1.8896845058176375	-0.7454289954965918
Si	9.546628298607574	14.866217599173336	1.280026175448636	14	1.0271848575576794	1.7894545929012409	1.715769028420585
Si	8.296778312464753	10.79452828867248	2.95091281474902	14	0.3460160115486123	0.8193572723194695	-0.8418706418342823
Si	9.416449810439099	12.368873872148509	4.236155229706092	14	1.2065608484336618	-1.0060930521743765	-0.3147071478441051
Si	5.284359371424672	13.555170236118455	2.6123284957528443	14	0.2779256864656627	-0.25421392476112903	0.6120637056562549
Si	6.48893694862512	15.005593568842666	3.990975722842284	14	1.5257540608403615	-1.085592142894419	0.44800867427250235
Si	5.64499489606866	10.885950604792296	5.611454963528436	14	-3.517185431713283	-0.7635252060713902	-1.7046968204698996
Si	6.8125712976905755	12.111230640353327	6.898631124596112	14	0.8863319948040069	1.221546021571081	1.8183170498936274
Si	7.936012788082236	13.537084022495748	5.585032516672619	14	0.10233359128934176	1.368887068600147	-1.5676684768799474
Si	9.373809896201916	14.84470264244695	6.856982458365203	14	0.11242158012347475	0.250948878115073	0.27388699422877416
Si	8.447236759843596	10.829481968369196	7.954716500462952	14	-0.46738838062311855	-0.1639125921490163	1.6073416604119604
Si	9.497017148391826	12.115033132705273	9.68286802458492	14	-0.31198331886794023	1.6345930628107417	-1.7095878341204171
Si	5.38792041312954	13.510434076097507	8.121424915157796	14	-0.4811041990639805	-0.010942624242550224	0.19820059558797906
Si	6.737155199377019	14.857166367378325	9.521814598516043	14	-0.3820274268836703	0.7937799165946366	0.10580638324526576
Si	5.357029225261824	10.639698600085632	10.85387316931051	14	0.18851961272602552	0.6217858262033308	-0.9112971703521129
Si	6.612371700357456	12.058873245661175	12.165603030992663	14	1.6781594140185232	0.7947103996099981	1.0097427361763267
Si	8.058488791742928	13.617326361102156	10.94305298994072	14	0.490784410594338	-1.1439680607462532	0.19938124715099106
Si	9.641820607144703	14.918591243832804	12.268107824821993	14	-0.6030180429189099	-0.5804799907930239	-0.18531884371297314
Si	8.235125936467847	10.901826822860027	13.661136272986091	14	-1.127332495103831	0.817280590552386	0.03877586777528124
Si	9.445179752653788	12.369231371429459	15.226495624536371	14	0.31519540074440117	-0.5790345153820367	-1.3537738544177846
Si	5.616849952677348	13.545176506219116	13.721261152055291	14	0.3897566836970995	0.6709325043979614	-0.7653748592387046
Si	6.915401090866224	15.146285785864595	15.109187110482168	14	-0.5694316941218156	-1.1334859214665414	-0.5787362671648995
Si	10.868904389077812	0.08544232814752799	-0.142365963655476	14	-1.0152479868878277	0.17560726469770985	-0.14860397396232264
Si	12.195096721671204	1.248452488953648	1.3080573690687358	14	-1.0599152853936962	1.926553384776965	-0.46146146863911314
Si	13.569518957258484	2.540649889921968	-0.139197220028856	14	-0.42696340589549436	0.6198988920088742	-0.24895395749717011
Si	14.654383025241959	4.1242417048008	1.23556626487206	14	1.388318968388762	-0.08237924289967251	0.2653630087608872
Si	13.37144810564376	-0.091877315204664	2.553064864951392	14	1.5459259247401151	-0.7338433378134727	1.5427539521066485
Si	15.064467200428536	1.374698485031652	3.822333562036836	14	-1.5412974209427848	-0.9953471174888177	1.098162791025687
Si	10.888583099497488	2.721755775658788	2.785715647014564	14	-0.40239495189828733	-0.45271122590305324	-1.1809436405763667
Si	12.364486380973188	3.954397046413968	3.957305790563532	14	-1.2936125610316398	1.8836699191422153	0.03723757546223664
Si	10.737702152968428	-0.085588577853372	5.483925220032468	14	-0.9685690555794751	-0.49847715771222106	-0.599338276984714
Si	12.156568049164969	1.135190216761128	6.637721649370416	14	1.5889176339088433	1.811764330874698	1.7582097497192055
Si	13.527837791092944	2.668943381881788	5.288893112305836	14	1.1742754789285628	-1.7639569414413325	1.180657219443702
Si	14.896393788479148	4.087890527914907	6.677062820242452	14	0.29233236090604847	-0.43085683068179453	-0.6186102540224159
Si	13.75665358086954	0.021839956072703996	8.232135942481703	14	-1.2232174971397096	-0.3894322102056968	-1.5756219340772935
Si	15.04446349066254	1.393418447379684	9.52873708459266	14	-0.028101152707090446	0.2819031863959318	-0.08399286859859743
Si	10.818756989940635	2.6657746382551677	8.021276366589287	14	-0.09920481322525355	-0.31016914695404374	-1.5578435121200658
Si	12.14839431560502	3.9844432359812516	9.232240180944922	14	1.2104761276151836	1.5770458122035917	0.49108111614828304
Si	10.928379269454371	0.037764924042384	10.910569305276036	14	0.11542411691634369	-0.19190472999053246	-1.1496214071241948
Si	12.420337518638279	1.314719855668296	12.126391859859156	14	-1.1073712047297974	1.1618961210331138	-0.2383810581996572
Si	13.603481388948923	2.73657574585098	10.707119714479715	14	-0.30600935565657617	0.5853468360535322	0.5886489066161984
Si	14.859343862998667	4.102011749512512	12.247860365546256	14	0.5418889854902612	-1.4301310544366062	-0.18345504946639785
Si	13.617651360448475	-0.031053687540875997	13.45516793725579	14	-0.8209552142759418	-0.8332278713006045	1.2349587066946976
Si	14.991634846918224	1.1220602431698	14.80375272481063	14	0.28616299369035314	1.3455113503609568	0.8712961708917811
Si	11.029031567009675	2.907574151917248	13.255130839595832	14	-0.7671823462787688	-0.21069796721762285	-0.45065228476267866
Si	12.111214390386012	4.11262297816986	14.838998903919034	14	0.7474701960102574	-0.8440103156817096	1.214250510225161
Si	10.936943002229903	5.409321620084712	0.12315850228796399	14	-1.0352447585152795	0.6597587377871298	-0.9154621038602205
Si	12.136661839202867	6.903912363973811	1.3925246991773041	14	0.9684649258140093	-0.8617082620424167	-0.0810803204919337
Si	13.548361499813051	8.144467368811883	0.010529978820768	14	-1.6516659734681214	-0.45768528625541166	-1.266113304079996
Si	14.936888707030619	9.1499503464567	1.3323673201734718	14	1.0926007188866107	2.2349816363187367	2.028005344052028
Si	13.547695251153094	5.534560118189123	2.7388182413405877	14	0.23876800955033953	0.14435599375237398	-0.26886973930703717
Si	15.14480703883884	6.591246742846655	4.1730403566507475	14	-1.0274054583941479	0.9536605013805965	0.015605323740638765
Si	10.910764304883827	8.019391370380632	2.901610413912276	14	0.17285592489461937	1.4706907550830062	-0.2548533586542499
Si	12.462181184476979	9.319567505301109	4.114280474836092	14	-1.1953788542858061	1.6743873454033336	-1.470648588955756
Si	10.894611837371723	5.402870383060259	5.325179289322464	14	0.04007067641450781	-1.0941428678576355	-0.7833653973848448
Si	12.314728981051596	6.735416452874208	6.456875763110652	14	0.043947903237291114	1.1968757518031963	0.999470913311803
Si	13.871134600610759	8.259874636690116	5.441740304880131	14	-1.3972101076963663	-3.504331190665203	-1.7953002579571296
Si	14.931152468568072	9.402686088122449	6.823442525824979	14	2.5180158519450013	1.8271027738831052	2.0685102801551087
Si	13.653840037661208	5.5668325532787	7.85734669630548	14	-1.9592714713074453	-2.0241461149664857	0.1147471448855487
Si	14.580981922875587	6.641264142245304	9.510764620741163	14	1.1245973532642577	2.471108349373688	1.4463372454905636
Si	10.82402197935102	7.504267406463431	8.17381480978458	14	1.1498808316509976	2.8035887769643804	-0.6548641245891639
Si	11.993320877508433	9.292982558772131	9.615853159373735	14	1.4392456227965311	-1.1393806946340448	-0.6603194958574542
Si	10.698962230887084	5.662041111783144	10.302056779193784	14	1.4550625485050181	-0.5294736321203303	1.1495116209270244
Si	12.061343240693207	6.7899350932193885	12.047937017657507	14	0.5079879334019808	0.40794159740544284	0.0794656663508807
Si	13.681156232719403	8.359308186696719	11.172892527658222	14	-1.6299079946963682	-1.2391244115344016	-1.5560267691008491
Si	14.834871412220771	9.567265757098895	12.778649297956079	14	0.36374661094688543	0.7342583142121445	-1.3337878814326776
Si	13.380450587536822	5.364049211142336	13.477787891759665	14	0.8202335050125762	1.2464993700347142	0.2477812763606506
Si	14.88410881318825	6.600866723497728	15.089898399278075	14	-0.7475067057058035	0.021084092067342308	-0.9202955247515671
Si	10.939997996085312	8.336216983140684	13.49457410799709	14	0.5480789215485178	0.16145332991029465	-0.15886525529503362
Si	12.166383029423832	9.833245222127184	15.01570104851322	14	1.6673782551900782	-1.6778349405271205	-1.5639108064545513
Si	10.965217945359745	10.99781537979564	0.18744337299006	14	-0.9006183415154099	1.174699197085323	0.3160299815313213
Si	12.541692274554167	12.342760174671696	1.3030523791354078	14	-1.360760061793691	0.6806839355456871	0.7200262178229969
Si	14.082140426209019	14.313669960527388	0.969099300824292	14	0.19774833816216503	4.57064749986394	5.00704969050023
Si	16.11111134528478	16.069722678530926	0.161947174271256	14	-0.11191481526487355	0.8637036968813838	1.0358479398233862
Si	13.641782561912736	10.832504462289972	2.585499799714128	14	0.22526713551424193	-1.6666891989642785	0.48825238607505617
Si	14.861147609370743	12.0997256634936	4.067090569750428	14	0.32726494044877236	0.14311466410380647	-0.1225033983048394
Si	10.924999276252644	13.495744105643844	2.711989545301872	14	-0.9078230928435288	-0.5403236965713551	-0.6330824916484655
Si	12.033572046550164	14.87172633809346	4.082983037785476	14	0.21917592990027912	1.3861767234360147	-0.7247539662856851
Si	11.023311578514445	10.707964712780148	5.419916598774743	14	-1.040619139965985	-0.04937679212078378	-1.355635591780104
Si	12.191635478632897	12.018703326456023	6.758540156364876	14	1.34525398271841	1.167335551448419	0.5971392106043913
Si	13.441875463991304	13.561458973469747	5.197503296120652	14	0.3489730397773146	-1.434276190433749	1.8487229414096984
Si	14.805491471313443	14.86230135705018	6.584064257292983	14	0.7344287784948704	-0.10706802462586243	1.2431229945282958
Si	13.484564128130437	10.539436301745912	8.19794601124884	14	-0.7531582523100211	1.035534264974328	-0.20373207157374565
Si	14.933524963796208	12.009229595510796	9.341049962092859	14	-0.7919947981708577	-0.3106334885748625	1.7387729648304822
Si	10.892369341882116	13.483507880254896	8.048982560863069	14	-0.20707785092685435	-0.051877963376223836	1.3548532044311825
Si	12.339266431698757	14.873660084204063	9.475209692253756	14	-0.6776047798142777	-0.07945435348747205	0.04680054458999541
Si	10.848510680096233	10.776198325540031	10.85830941038778	14	0.11945432450567578	0.40761763813510415	0.9847557062329995
Si	12.140236832012388	12.205529200688074	12.257317846524169	14	0.5577604186315354	0.2616531608944455	-0.5825764700710726
Si	13.649176297041516	13.441030465690872	10.841945693300566	14	-0.2263691112544574	0.1966247651372603	-0.13695352442513564
Si	14.946541187616322	14.861212609240006	12.316873976737309	14	0.26201697229724646	-0.13828509987044033	-2.3274815210901076
Si	13.662208770828947	11.370150880907147	13.77639729115848	14	-1.4707732875637831	-2.1163742339055176	-0.2064867538137523
Si	14.810431461377508	12.499653609107675	15.310865454841043	14	1.9425849977796843	-2.1988138977802136	-1.238887355623884
Si	10.928801768604588	13.587068921959764	13.711186172319373	14	-0.8092772539118291	-0.686675382273228	-0.14281410189188118
Si	12.35273765460372	14.789257753964758	15.080408418365533	14	0.6345781036131956	0.7833800526851696	-0.17107183491296862
H	17.045939465039627	17.079729647076515	-0.71260169172489	1	0.26033829763372185	0.04741915253002304	-0.19917401606218715
H	13.651839666684609	13.91644438447796	2.467157787738626	1	-0.0769688659744849	-0.08376326889350821	0.339222122850653
H	9.867514778199896	6.462225252351079	8.920153058654218	1	0.8396404650795858	0.99896646244799	-0.11290417659206654
H	3.389886181829981	-0.8700541250365404	1.9575490627284766	1	-5.93140241944699	6.189475059072597	8.390584953903703
H	4.985299847931203	13.88027520722601	0.16005080308547878	1	0.15911079585310775	-0.03193647051315533	-0.2185876610030292
H	0.4274098903388952	6.23182184076771	0.9491475909537072	1	0.9545215645523141	3.587668170296631	3.8410346587442388
H	14.084473921515597	13.336811300309705	16.28379812295518	1	-0.2691646450872581	-2.728306813190445	-2.655104359399445
H	7.22042922735486	8.785570829343106	11.431723632064202	1	-0.7733416861837155	0.419491002503548	0.6413537374633818
H	11.428489888568318	15.636730924418986	14.085379044695099	1	-0.128434424057357	0.1702552518632896	-0.20074239030747745
H	-0.8100413707418207	4.404672265763207	-0.9800241538508389	1	-0.19502733740185232	-0.30734915863890533	-0.4161593642297001
H	7.70496262779969	6.753411666679946	8.148547735604932	1	0.9977611282739045	1.4320740387270423	3.2795291681033754
H	17.75945765492114	1.393418447379684	9.52873708459266	1	0.24734598822994955	0.1809111978626433	0.22135982675921292
