224
config_type=interstitial dft_energy=-23333.48669456616 dft_virial="-21.027284875542176 -2.2376326970899663 -30.543282410459067 -2.2376326970899663 -14.496143952808463 -4.923599743235864 -30.543282410459067 -4.923599743235864 -13.16729709839944" pbc="T T T" Lattice="16.3852778749 0.0 0.0 0.0 16.3852778749 0.0 0.0 0.0 16.3852778749" Properties=species:S:1:pos:R:3:Z:I:1:dft_force:R:3
Si	-0.6226733298019499	-0.6910327090960328	-1.7629739729498657	14	11.766594849145637	-0.64392612833619	8.550704137263374
Si	0.03594929965753061	0.07432362044054641	0.323773090808024	14	-0.5254884188741008	-0.9227676425168895	-0.4290200330410808
Si	1.2936013029454803	1.4487698844207832	1.5698570879162943	14	0.7018181641667721	1.172822033091083	0.31160176683843027
Si	2.7354893706588057	2.5767160280510244	0.03609676715840471	14	0.18881169029039432	0.9293195902042228	0.14858057690390927
Si	4.049949132339034	4.145262293737327	1.4275837201285375	14	-0.9151823676013885	0.1621814669369606	-0.2824701151190244
Si	2.663951247456992	0.1621323245721355	2.94938278803775	14	0.10016872060977706	-0.8701090915654688	0.17381854672648284
Si	4.2523564699276735	1.465728647021305	4.135250888955762	14	-0.6450669277667397	-1.0397555056889471	0.11109771799413051
Si	-0.0639681248236096	2.882596395419658	2.9470724638573893	14	-0.5075945542879982	-1.3894060317181207	-0.8178508617123948
Si	1.4225370545430684	4.0569784165473655	4.1627945410634695	14	-0.401451870466857	0.22657171435368506	0.77435932966943
Si	0.020448826787875202	0.0681791412374589	5.631767473104005	14	-0.4350819280543939	-0.09270145942847101	-0.08263326810530314
Si	1.5305488062944093	1.389979507405642	6.930349900523455	14	-1.0411634429622603	-0.5347865641538843	0.615624943635192
Si	2.767227653902487	2.652366855999438	5.454151060940089	14	-0.25127232316434767	0.23299536388554304	-0.17534064107601047
Si	3.9664169857327933	4.033367231129635	6.862367382620494	14	0.9230288668174165	0.4462798630552348	-0.49112791026510977
Si	2.705569853259238	0.067835050402086	8.537434339771522	14	-0.33480213569478645	-0.19480750789697965	-0.7646750043705604
Si	4.190878907341049	1.425715798450799	9.68122504710679	14	-0.5429907041199448	1.074622007824943	-0.4589353576620677
Si	0.10216220755000151	2.7626889319311396	8.309007180917542	14	-0.619029858410664	-0.4666551013858123	-0.9382222994857675
Si	1.404562404714303	4.095172499273757	9.638869103800175	14	0.08785312612626776	0.3909486481235201	-0.4671155863486508
Si	-0.14700871309360283	0.057250160894900606	11.00043653937074	14	0.01004350871209444	-0.4824568575729104	-0.09085437736647661
Si	1.330468178164005	1.2190810591704349	12.393316240960239	14	0.5027356794539823	-0.07723240426980009	-0.1113681982738101
Si	2.569899752455066	2.6804512222770165	11.019476232261374	14	1.264618720557394	-0.5375445888308071	-0.1264760131350002
Si	3.9809671124857045	4.07842674528561	12.246995709537382	14	0.3331910811011817	0.4584936417680663	-0.6901718283980974
Si	2.888445939620997	0.0045551072492222	13.781542523633266	14	-0.1566741593412034	0.32960027541106285	0.08245817583300107
Si	4.311425396666687	1.291831692934991	15.190234018372044	14	-0.28557601034576335	0.2666999835273642	-0.14152366413169884
Si	0.084220328276986	2.711779873573825	13.597175376984893	14	-0.5271467818055963	0.46453316816509405	0.6628481779398196
Si	1.4637951842320664	4.006888622083796	14.932182277120246	14	-0.16125175525319507	0.5188966190543051	0.7935102076465531
Si	0.02293938902486	5.375518112418443	0.05176109280680911	14	0.9993798961834698	-0.5124770832909593	-1.0154256502654497
Si	1.498777752494978	6.738379984941126	1.2086272518862486	14	-0.4254387404406465	0.9697929017118658	0.6084430751444223
Si	2.846696251595752	8.276367707390738	-0.07407784127242291	14	-0.002112934352097691	-0.32370010292238705	0.47740026473977515
Si	4.0869470897805575	9.785173249945156	1.3858176468254175	14	0.47693258068204025	-0.7752250208307239	-1.4760404539226384
Si	2.5433228317419783	5.560409587958815	2.9151703278349586	14	1.1575833489690972	-0.6396483233045276	-1.6388577552052719
Si	4.041248549787461	6.759467837566122	4.127451496687311	14	0.1112884940088855	1.3380366329742222	0.3564600984695858
Si	0.037735294945894705	8.078253312605323	2.6186623394107684	14	-0.7300077628968756	0.28101152707090443	-0.5465141468506757
Si	1.3595684316698275	9.384635132293226	4.055257962370501	14	0.11848296091572386	0.8755408086648134	-0.08702291621839196
Si	-0.044453258874603704	5.468439023247002	5.411844273467096	14	0.4236564502327198	0.14640002248189168	0.9924463964666265
Si	1.5145731603663817	6.746818403046699	6.845982104745595	14	-1.4979678685349893	0.7157828656026245	-0.8259832678400233
Si	2.7665722427874906	8.294211274996504	5.5378634456029525	14	-0.044694809332794135	-1.4520067898320221	-0.5499103198680592
Si	4.284176679560729	9.481291886477262	6.743574118027469	14	-0.08883400280590427	1.55263753806783	-0.30507758708855454
Si	2.7533329382645713	5.460180843198052	8.201470602224571	14	-0.25496185929876014	-1.0263363928020304	0.39265869027195055
Si	4.084456527543573	6.862432923731994	9.371723533327806	14	0.1635199843666297	0.6727677593754829	0.7171041566266486
Si	0.1016870344916294	8.04710489936514	8.274057383210378	14	0.1434903025910801	-0.0841952145872931	-0.03381260606526739
Si	1.4532922211142556	9.658072649469556	9.422370427239121	14	-0.7639162711905846	-0.7122817914881788	0.6786404210372333
Si	-0.1911834222443332	5.2342114760253065	10.829964108360281	14	0.5157583279005323	1.4289488602104021	0.6135680593790735
Si	1.2157876183175802	6.855223401467038	12.092679162511574	14	0.2491712158967227	-0.592929796974245	0.3497716250897526
Si	2.7022600271285087	8.222509299015943	10.76522587547655	14	-0.004103741201488349	-0.16226065698082118	0.4614840943659305
Si	4.100284705970727	9.560531090280277	12.19729916174281	14	-0.3800849568142984	-0.876054772618311	-0.002993795034780423
Si	2.6275267747410895	5.47445242022709	13.455459108644883	14	0.2821075892688836	0.9508412843970543	0.9829847288884815
Si	4.168398306096686	6.885454239146228	14.904360075288665	14	-1.1104742717406841	-0.4958980819655806	-0.30447851954896
Si	0.0505158116883167	8.21387425757587	13.702663795943499	14	1.2252846658171086	-0.3932261332161073	-0.2403212142742409
Si	1.403431820540935	9.618731597291921	15.07237471461789	14	0.14270791524215906	-0.09053350342252214	-0.38029655878214663
Si	-0.09885238141927172	10.811530670751017	0.0832535968823669	14	0.20957722240857032	-0.05317714289449466	-0.34317468305931664
Si	1.1596844268739226	12.206868164021753	1.4428711843858193	14	0.966565393203484	0.7712428929108786	0.34004564788469643
Si	2.790593060152094	13.532273291322413	0.17773110910904033	14	-0.33830269558816806	-0.7178464347325753	0.7621650913570317
Si	4.052570776799017	14.918484184816828	1.5604027825824769	14	-0.11674540794036778	1.2837323175073747	0.2428123582189324
Si	2.684482000634242	10.886788252030435	2.730082228960088	14	-0.9498007580739904	0.9392078041549803	1.0111607007603884
Si	4.051505733737149	12.31466690716072	4.146474804300069	14	-0.1314277048710734	-0.662069647248879	0.10262232641679438
Si	0.07478240822104361	13.844363679005633	2.845008567974637	14	0.30290731708781754	-1.0062979692683922	0.37608843070466025
Si	1.4141969481047443	15.045437317791553	4.384290727376368	14	0.31950971547160967	0.23513349506977818	-0.6007824668430412
Si	0.15356282424356282	10.893391519014019	5.442796063372783	14	-0.7149770811952899	-0.24688961703562326	0.17817914134945395
Si	1.5110339403454032	12.19733193229856	6.932332519146317	14	-0.6052690456266996	0.8095567330601293	-0.8008211456243941
Si	2.915858509505705	13.70095972704451	5.658114999926844	14	-0.3480893508787797	-0.04925595017073682	0.818060663906519
Si	4.154978763517143	15.194346723118644	7.20557341298815	14	-0.6579257968043962	-1.1701393418000405	-0.8563454505656519
Si	2.9105660647521123	10.884707321740322	8.15926212641883	14	0.7973157006309042	0.03710027843814073	-0.520127150060528
Si	4.058420321000357	12.380355486161193	9.526924885358858	14	0.03556661411467241	0.1044892059897539	0.4519105837063591
Si	-0.0020317744564876004	13.51072665091692	8.301388026705713	14	0.015828752792959633	0.6319195807121626	-0.6568145650850282
Si	1.1826565864545324	15.015222865390237	9.723023890965662	14	-0.15309158118810906	0.4188770225530966	-0.9535394023200177
Si	-0.007062054764081901	10.855967544347747	10.892572255120273	14	0.9644460310880859	-0.2549330629191745	0.604999593789148
Si	1.4763790776399899	12.099905070054405	12.427676168663904	14	-0.22695429482532312	0.33207676405542946	-0.8337066111112161
Si	2.5472389131540796	13.687065011406593	10.918772314442238	14	0.9110817117262844	-1.0883743359613511	0.8587265512026411
Si	3.950752660084389	15.002868365872564	12.27775087610857	14	0.837073987749014	-0.09968638125171729	-0.4809831000034016
Si	2.997014790820084	10.848741636804915	13.73758082309491	14	-1.4807566324113859	0.18032704273390568	0.14910585372081556
Si	4.115572170228008	12.386237800918282	15.047862338917039	14	0.7595150531035552	0.47865933501505176	-0.7020899299991119
Si	0.2669489471378708	13.523343314880593	13.951310387695107	14	-0.7019793724703455	-0.8641245868222919	-1.2711238741279005
Si	1.6879621708385735	14.967279542328281	15.231426606949542	14	-0.38166284414927326	1.158238980825735	0.014567368522894987
Si	5.598734752908206	-0.0942808888921746	0.3367830014406946	14	-0.3979821638373172	0.19627792302957234	-1.3903295727491178
Si	6.973230172722068	1.5253055173744412	1.2838192920541651	14	-0.5252428783160267	-0.021681359833212708	1.1703301178147956
Si	8.326998216024181	2.916776085066699	-0.11885880570452462	14	-0.5590230884542601	-0.8668648708725057	-0.27502059456442746
Si	9.441098799850131	4.270249193367063	1.3404468123898194	14	0.32337717209417643	0.9746119244134193	0.020744963275614776
Si	8.03537304040671	0.1396353380498978	2.9588370933715673	14	0.6191460723711348	0.3020035735677854	-1.5002589804857733
Si	9.611817010028716	1.425896036507423	4.080540446131472	14	-0.2550166238420793	0.013575178979849842	0.5278823750376905
Si	5.437864094732437	2.814400868904324	2.7317207567475785	14	0.7116716681957077	-0.4167856854856882	-1.2354821837378798
Si	6.807493087017455	4.086029514219564	3.9945341225661215	14	0.3060227254042409	1.1736833533733326	0.684122274690321
Si	5.315842930398057	-0.0918230972109396	5.570093287182881	14	0.8395185946874109	0.4667525462774459	-0.7516076186914398
Si	6.7179639287090005	1.3663847072657862	6.717685378985127	14	0.30531310033588005	0.6366882097494412	-0.46266140349202634
Si	8.149086868858516	2.7658349052831204	5.405929188154258	14	-0.154496947356102	-0.5760558898686451	-0.38025079310744797
Si	9.584699375145755	3.969595729640524	6.714490249799522	14	-0.1374569468468206	0.872616176363145	0.5603608345523331
Si	8.09770263744283	0.0926259758268097	7.984595064272395	14	0.469202295426483	-0.900881879810725	1.629198369628007
Si	9.45273234714131	1.3231931147875495	9.53395416956719	14	-0.39636750969626416	0.4562444388340008	-0.37122029989149186
Si	5.49912864870669	2.7887415237522304	8.07656562898421	14	-0.8134218756879078	-0.37368161901446967	0.921422954434452
Si	6.649539008303418	4.335102123195918	9.394138593460667	14	2.180404269466889	-1.4782701164562708	-0.8750517844329213
Si	5.401669015906784	-0.08844772996871021	10.85737667824499	14	0.6990999916223116	0.1372954814327153	1.3995626690643017
Si	6.804609278111472	1.3622064614076865	12.304786584602155	14	-0.14420506987008128	0.522071162793092	-0.443939128771772
Si	8.044040852402533	2.8480398443814936	10.743318758957809	14	0.17339225746440226	-0.20764735075526716	0.803703097577748
Si	9.506082811901985	4.177033347536757	12.249813977331865	14	0.2536022588054659	-1.1509709803067403	-0.7153763738515091
Si	8.3609976676146	0.1291651454878367	13.699779987037516	14	-0.9866830067809825	0.009179874435056702	-0.16513052473917045
Si	9.744636072482654	1.511246948957777	14.959627617560702	14	-0.24528396176319076	-0.4281512565534028	0.9734235595344468
Si	5.352136320890962	2.8876922168387518	13.656801403171654	14	0.8967953650148817	-1.693594016365904	0.29034926737261824
Si	6.814718994560286	4.15684668519488	14.953024350577117	14	0.04406206031350569	0.5675133924424531	-0.29304764240611364
Si	5.393689385581708	5.477172376354323	-0.06329632843073871	14	0.04664962070770272	-0.19394361650940992	0.128122034760959
Si	6.592452700187266	7.006787221809863	1.2334345625888474	14	1.0770907831533496	-0.041167767054614994	-0.08089828623526722
Si	8.123361982594924	8.378710152997366	-0.15534881953192692	14	0.4146251856851677	-2.019911761614734	0.8122481661092602
Si	9.589631343786099	9.531430836774454	1.2402836087405555	14	-0.2787623241368389	0.7619563176050358	-0.0886784509340353
Si	8.006584107180512	5.708057326889539	2.6812377156150116	14	0.4249489448771583	-0.533864051565015	-0.16786180992076374
Si	9.517929367805538	6.901020253127383	4.117423706627871	14	0.17400495186219356	-0.38632348676310574	-0.94805497756161
Si	5.2338018440784335	8.241860312186201	2.660412027436014	14	0.5773931217456542	-0.14202040167955146	0.38686419021193286
Si	6.851848034224809	9.5446537560195	3.8221282287664238	14	-0.8184280748567682	0.14703457127490424	0.28085520386743945
Si	5.388855728608612	5.4101893604017315	5.454249372607338	14	-0.32900300764519247	-1.1271116371568304	-0.43615793563087585
Si	6.827122649911584	6.695647180243387	6.628205376510298	14	0.40538591871721563	0.8619098366995165	0.5614116452966778
Si	8.010319950535989	8.188870323538774	5.274732268209934	14	0.5827559332224189	0.047807903654429426	0.4908959965652325
Si	9.492843507379066	9.394892316242915	6.656945153902874	14	-0.04180874361092791	0.9997272525122218	0.5632702973326128
Si	8.283675541322946	5.494393303400843	7.993164564600968	14	-0.6014787221637372	-0.6919554041586842	0.4546326129087999
Si	9.41173638189831	6.877130517985779	9.472574918647815	14	0.8238677623826055	0.5707599271302041	0.015947023637686446
Si	5.558623592670451	8.102290515247802	8.014252417225965	14	-0.13637065484905808	-0.5024137770678998	0.28639105073225024
Si	6.676869651798752	9.622516596481024	9.337511073125015	14	-0.37178568595139244	0.8754662466105293	0.3361640501828689
Si	5.350825498660969	5.488265209475631	10.740729885053574	14	-1.15804820481098	0.4311784759573451	1.5339705421119587
Si	6.67218346232653	6.914423410429051	12.055812287293048	14	0.6076254636526153	0.08097670494753173	0.15081486742711797
Si	7.990264370417111	8.374957924364013	10.666504576280278	14	0.6399092904945226	-1.2031430781315893	0.8830787752424236
Si	9.467036694726097	9.550290291608466	12.092777474178824	14	-0.06014612386475602	-0.1044632378260204	-0.05961236240029329
Si	8.060770221112806	5.527426023596641	13.388263084079917	14	-0.13550727768255233	0.373548692869418	1.3598282932256696
Si	9.473639961709683	6.8497179481010715	14.860447530583933	14	-0.426541487512458	-0.2516525896411975	0.4423674120895655
Si	5.457378960681443	8.265143792046434	13.556703740633889	14	0.4546652659463657	-0.18295882613960923	0.10854255352696733
Si	6.822583927940237	9.660972843653415	14.94373389802205	14	-0.9710386022394776	0.525840146081897	-0.451560399161755
Si	5.5317353516777406	11.145118543006108	-0.030116140734066203	14	0.3980343572753162	-0.6212610636074887	0.629308109038488
Si	6.875836081033662	12.569638216172038	1.3827372145849364	14	0.19228936734642663	-0.8953789430940121	-0.21881674648705443
Si	8.273647751263505	13.887735509540494	-0.037702524390144904	14	-0.12005930558750663	-0.5919718031319576	0.5845559640570546
Si	9.478801324240276	15.325396175562096	1.4361859910128603	14	0.22591659671811132	-0.9729653885663966	0.32945243685515435
Si	8.228358843217283	10.924654629199328	2.5706207046815615	14	-0.08011821288113428	0.44885122548591494	-0.4171962910053158
Si	9.618403891734424	12.122647835744766	4.02994270805378	14	0.12807909730211253	0.26140530634158327	0.5835792011459303
Si	5.430867581079856	13.641989111972743	2.8926569560348465	14	0.19920024133645264	-0.05485736022121143	-0.7125422444571098
Si	6.787601359677326	14.988564018287775	4.148064176253935	14	-0.012182925448989657	0.07192975665752668	1.0283171723406723
Si	5.601995423205311	10.953279709646779	5.2747486534878085	14	-0.19957228027627807	-0.1853885206671492	1.003617334861606
Si	7.018977868548789	12.318484676905571	6.720880508170732	14	-0.3559661891375854	-0.4210773744860793	0.11397735595269637
Si	8.388279155276306	13.632928053307923	5.332162667161458	14	-0.8388786465732261	0.25293814230127154	0.16190404467291664
Si	9.541032609609147	15.137457038336992	6.706871095587693	14	0.6219874008604305	-0.3634542762719846	-0.16625795442205538
Si	8.28559261883431	10.84099140037009	8.159442364475455	14	-0.13731373628048837	0.4882197330374903	-0.40717977889908286
Si	9.60672118860962	12.245766813696765	9.609277291958106	14	0.46014197738881324	0.2535819470734367	-1.1614896292819983
Si	5.580465168077692	13.59583178419915	8.15578844750935	14	-0.13209156426473562	-0.077803703871937	0.08455825465849802
Si	6.894613609478298	15.02305502821444	9.578784289832917	14	0.39689792872381074	-0.1633819160109377	-0.6055675509543688
Si	5.3432227297270165	10.95201804325041	10.908171039657178	14	1.2182570636455476	0.6748817221697089	-0.6769699739107331
Si	6.915242674322797	12.271229535514358	12.241850732284664	14	-0.49545096675040673	0.18547773802175832	0.18035506778189528
Si	8.351019033388784	13.661061575419128	10.923573200859584	14	-0.887269419803733	0.4422026042385441	0.4489530412565928
Si	9.61819088312205	14.96477259481342	12.476717305343481	14	0.21004413513470918	-0.04195452528258031	-0.9574397690906824
Si	8.295112465279626	10.852772415162141	13.618148532664764	14	-0.7465168301575464	0.7659831827574516	-0.20037472224669628
Si	9.45604217327204	12.188762431969987	15.162116881538717	14	0.1900753885552471	0.6389446117784031	-0.44683702157811095
Si	5.487380404470386	13.78513089948787	13.574875013797154	14	0.43005798825882463	-0.5021432967882202	0.5196067583437299
Si	6.904543087870487	15.200245423153609	15.032394636603135	14	-0.662922482883572	-0.3085655485658674	-0.36014166417750587
Si	11.03070014760568	0.12780516742422002	0.09378933055592761	14	-0.4730754084807541	-0.5374312030861885	-0.9816338701532756
Si	12.262168476849538	1.498105956102107	1.452423801386886	14	-0.06534001372198717	0.3664012771899383	-0.11069662556418741
Si	13.645806881717595	2.8472041952098737	0.1350802308006756	14	-0.362280566693337	-1.1816365534601465	-0.7484628997743665
Si	15.028216390745035	4.086095055331063	1.3700550095097634	14	0.27363605434952765	1.064079447570208	1.1702658401817916
Si	13.549608915314057	0.10740549646996951	2.775715227841685	14	0.530145204829953	-0.2545563959897728	0.40463592729532843
Si	14.921646543446684	1.3838350282025547	4.205658427984208	14	0.6822502529067211	-0.05216541295101639	0.2027339684884642
Si	10.760031742390206	2.8897567618509887	2.669915488603456	14	0.6376366905020437	-0.3855318434350321	0.2601099834812926
Si	12.28610736782477	4.051358266236275	4.058403935722482	14	0.07119802008341256	0.8919377757335258	-0.18168612900613595
Si	11.047970230485825	0.052826135868677605	5.385889993313255	14	-0.6164849783647816	-0.2665223201497419	0.04161513938032076
Si	12.313585478820977	1.3137224241758574	6.865595282361849	14	-0.688896560159304	0.3160322955261094	0.47309700576544333
Si	13.580331311329495	2.719300716118404	5.580530709189192	14	0.4484478190611837	0.4696944049847594	-0.5754285401705289
Si	15.077060904090109	4.062254476023083	6.827581437692082	14	-0.1902610223593618	0.05906188875124959	0.46423234884263676
Si	13.576366074083769	-0.018662831499511104	8.26971528457353	14	0.6468808425701041	-0.4504581663110075	0.566313200479008
Si	14.946650477483782	1.4446735649520581	9.617601013118554	14	0.23937170507951028	-0.3396944348979642	-0.6924979073812354
Si	10.838222288409229	2.680172672553143	8.177384243748469	14	0.7991936359567404	0.06946483798710072	0.6036127395794602
Si	12.14419447615026	4.176918650591634	9.657843255579309	14	0.5965545412545896	-0.6211060259566837	-0.7574244873677427
Si	10.835059929779375	0.029116638783697302	10.94736462433394	14	-0.8940625371700962	-1.790271433061452	-0.8011759581585746
Si	12.161562870697654	1.2242588069789035	12.220680953270293	14	1.6629484978339948	0.5902370783724538	0.5617834271259711
Si	13.571745425723048	2.6533827432276813	11.020377422544493	14	-0.7065633961456375	0.810386685857473	-0.49997276967695126
Si	14.963297919804681	3.98503066139868	12.331396275870992	14	-0.36381628790106146	0.4588628524920395	0.5310337788285961
Si	13.560767289546865	-0.3105665568408546	13.50092825474773	14	-4.229745416797101	1.6544234839239802	0.03981947942472934
Si	15.025643902118674	1.4231760803801896	15.00894730396415	14	-0.8627374755020721	2.2239981315015958	1.2046713431338854
Si	11.056097328311775	2.7081587271634726	13.528996235747433	14	-0.5658527155161696	1.429398546530896	0.2821088748215436
Si	12.394217431243359	4.060501251290469	14.998722890570214	14	-0.31920169705425594	0.46072973206499906	-0.23899786636596074
Si	10.96037453496661	5.469585992698245	-0.10937172981495752	14	-1.0970579870696193	0.07721132120617487	-0.08343648140731741
Si	12.140425862239033	6.960482426535395	1.236482224273579	14	-0.03345085154672255	-0.9446665178601867	1.2412810546769417
Si	13.6040244231366	7.980154653968298	-0.11867856764790072	14	0.12610680241102695	1.3427584678946742	-0.5811613337028632
Si	14.738475522083178	9.494039632663933	1.2491808146266263	14	1.0521063243153423	-0.12627083893045238	1.0666081296525738
Si	13.611528880403306	5.613940290776114	2.6091424929654514	14	-0.8234939236690559	-1.2622224503990158	-0.04509975842071745
Si	14.996625575002227	6.767709632337198	4.0184566282634755	14	0.7862923436813013	0.2560913458659012	-0.4300446185111598
Si	10.871304164438653	8.352346240896651	2.735735149826929	14	0.4119067560301752	-0.912674254361584	0.3193377085256918
Si	12.38502529035554	9.542458128784263	4.152848677393406	14	-0.3710979152782528	0.7065081173812543	-0.07340068601118341
Si	10.877088167528493	5.444336279493024	5.405503170929511	14	0.11403289182761157	-0.2016271076481404	-0.41736701239857366
Si	12.271180379680734	6.8063788881219605	6.675231124011261	14	0.18447732094168867	-0.08958862221736773	0.7215004896135697
Si	13.785311137544495	8.111744820581618	5.426115850496135	14	-0.2543432513587325	0.07724551690693285	0.48937390221570476
Si	15.185318435009574	9.354863082394532	6.878949283829893	14	-0.21670432635602077	0.8650596978272298	-0.644707744353515
Si	13.63197770719118	5.476500579961452	8.113612742259358	14	-0.30544345537561157	-0.36083971927192604	-0.03965415735264382
Si	14.934394289633357	6.746834788324575	9.566675569483365	14	0.021691387143961283	0.29524568034430826	-0.06526879410461905
Si	10.901059829059472	8.172190110662125	8.053675395792974	14	-0.35076689995918187	-0.7155944035826576	0.3307798985319468
Si	12.136509780826932	9.410015927721446	9.607081664722868	14	0.9549560813514192	0.33702845579150265	-0.16918695760276808
Si	10.836780383956238	5.640091194264453	10.976415722006136	14	-0.9745263066062585	-1.2867181421156626	-1.2835855073935942
Si	12.210161604874608	6.673969457614894	12.368132068866517	14	1.0999553656548942	1.1903734264485417	0.6645109117503596
Si	13.524949072112333	8.062736454457793	11.002419157993604	14	0.2772345733556069	-0.2613950219203027	-0.49648763641549043
Si	15.17527425967226	9.271380091621918	12.166855315451246	14	-1.0032967180281835	1.232499701566508	-0.14842168259512412
Si	13.755555472923676	5.566717919940652	13.786949665331985	14	-0.2531073210313374	-1.3493608092462825	-0.9398572653588496
Si	15.229132668047058	6.803691702550477	15.042242188605949	14	-0.6445159398966319	-0.0027495400293663557	0.3594364099881892
Si	10.749594320383896	8.160687645593946	13.427833530147801	14	0.9021818306605918	0.2670753649041058	0.8679305940277071
Si	12.278357131389942	9.446014383212601	14.871949995652113	14	0.02839888670316359	-0.0003077613068217251	0.09761561302687002
Si	10.986656520677949	10.928521554777804	-0.05307191503680111	14	-0.09412173800732081	-1.314482737136346	-0.398205592889638
Si	12.131495885797213	12.179750529138792	1.4400037607577119	14	0.03957650997197536	1.4370187884787509	0.4396140154022189
Si	13.612135135684676	13.449544023332043	0.15305488062944092	14	0.6535420622335437	0.9577956100669909	-0.23986278619565854
Si	14.962576967578183	15.044273963062436	1.604462794788083	14	-0.4772871361056887	-0.14834326388285962	-1.4892335666519143
Si	13.61328210513592	11.034255752904535	2.7453533079394954	14	0.37525950634944455	-1.221477887280097	0.2264130771554319
Si	15.125774335212187	12.296790568999203	4.040052424502594	14	-0.2722854527248538	0.15820936632786384	1.0278147783611156
Si	10.768289922439157	13.715755632965543	2.799785201039913	14	0.525752728501012	0.10551173457557679	-1.1352944369487337
Si	12.323678809991915	14.967328698161905	4.0492445653904126	14	-0.12792663075662772	-0.42439152924375023	0.8703008960223516
Si	10.988213122076065	10.923343806969337	5.601471094313315	14	-0.36909656689704956	-0.9418059060809899	-1.225205475773248
Si	12.34994441042538	12.139590213067413	6.990188935322589	14	0.3662948334296842	0.17487141435508347	-0.019858703271759735
Si	13.631076516908061	13.527587101850193	5.575811749161221	14	0.48078126823576994	0.35099778521693115	-0.9070034244674655
Si	14.95931629728108	14.950976190842756	6.950749571477705	14	0.5083556014627619	0.059397932216592945	-0.1255434732353825
Si	13.742693029791878	10.628408805221136	8.29763579807236	14	-0.3436253978219386	0.5631844224149197	-0.10844690840905785
Si	15.005408083943173	12.176981417177934	9.611407378081843	14	-0.4683000945696431	-0.2824534029344435	-0.09095233647917426
Si	10.896340869031501	13.65575274538766	8.018774753919438	14	-0.02654306288308071	0.16463867229142612	1.6667347075284453
Si	12.247634735374502	14.939785046054197	9.664217128672645	14	-0.29330912381717267	-0.18888111013403833	-0.3605111320120111
Si	10.979020981188246	10.919214716944861	10.96943559363143	14	0.15781161633483692	0.042047085074105636	0.16188141894609934
Si	12.372621635004242	11.98435609048061	12.625593940114822	14	-0.2961283408007151	0.7528355785923424	-1.4076819625547972
Si	13.56453590345809	13.361997483646453	11.027914650366947	14	-0.08409468436927531	0.8960309754032015	0.13388208200968674
Si	15.081517699672084	14.834181930150468	12.295266738156837	14	0.06582132463791888	-1.6022225897195457	-2.235061083473129
Si	13.974266161997841	10.677810418013959	13.670810815754693	14	-0.957121466252048	-0.34831715081014475	-0.1119711224713848
Si	15.060544543992211	12.192825980882963	15.043323616945692	14	-0.25592859489913583	0.24215158415165436	0.6968986112472008
Si	10.894227168185639	13.443907487743077	13.788489881452223	14	0.09876361155231614	0.26848767305646315	0.006166024778779123
Si	12.233887487237464	14.813487324194469	15.140144223908475	14	0.3316823564993187	0.6353782315888257	0.1342217250224783
H	14.850896552110653	-0.8433568063322531	13.945392025326692	1	-8.667501481531207	-3.616441152823876	-5.372965543005724
H	-0.7300280319105071	12.510282547070213	13.053185790066	1	-0.10396675738869982	-0.3349000948074841	-0.016247585849611754
H	15.5295501837722	0.5464031383498653	13.829554664862298	1	0.7103313509923145	1.5884201250293948	-1.569565952606217
H	0.5313958623442445	-0.6910327090960328	-2.91704316509606	1	-0.23980570765755124	0.7422151138464068	0.27617836329009005
H	4.226033521021646	12.19733193229856	6.932332519146317	1	0.023991497963365752	0.14269763082087847	0.09218261037486512
H	14.986179960356978	6.8063788881219605	6.675231124011261	1	0.013917135987429538	-0.027146758412251476	-0.09498074429478227
H	17.636646124122926	1.3838350282025547	4.205658427984208	1	0.18634702873050038	-0.127427579213987	-0.07610343192372307
