67
config_type=vacancy dft_energy=-6800.847201000337 dft_virial="-12.277188599963223 2.725137183029086 -1.553703428362108 2.725137183029086 -10.206365766387764 1.9946034201086384 -1.553703428362108 1.9946034201086384 -7.079024601526072" pbc="T T T" Lattice="10.844557406589958 0.0525319291203168 0.0351152738421936 0.052195742125533594 10.827422714597782 0.043021090590482404 0.035353858161072 0.043671775096514404 10.877167545083928" Properties=species:S:1:pos:R:3:Z:I:1:dft_force:R:3
Si	7.295138494636001	9.614016487481717	10.188722732692714	14	-0.22627963678931626	-0.8766301859889603	0.7758418289970275
Si	0.39998227270293074	0.20995636956134545	0.9110667558624721	14	0.3892560894912666	-1.137644170100817	-0.8468089638226908
Si	2.876753198834019	2.53055108502881	0.7135124329860966	14	-0.14537800811713283	0.36709290452105814	-1.4297153067063384
Si	4.366107133639018	3.9564220704769726	1.9922582292495405	14	0.3026252668341972	0.5047881928310566	0.20661710885348383
Si	2.9406731912840725	0.26073470393790604	3.240365461072291	14	1.615214384902254	-1.3217733633821573	1.9284400618608897
Si	4.523123811789599	1.4772891595889883	4.699629575370016	14	-0.447775732130497	-0.002659037122097143	-0.2235362674127182
Si	1.0079265669562187	1.9983161020006988	2.4642495872866794	14	-4.075365454733068	4.877502492060312	-0.4805154159456666
Si	1.698616240893243	3.8412498284351324	4.807368831404618	14	-3.5131570238976755	-3.0226225247404557	-2.8142478082901183
Si	0.5263940051122975	0.10266391688755225	6.2065151197158706	14	0.2977854181795505	-0.6156221154193399	-0.7138283113382479
Si	1.928826250179011	1.4435891245474142	7.55321406789259	14	-0.5501962267796597	0.18301024824601222	-0.19378523642168877
Si	3.250003183080802	2.8748813964050006	6.2240879392754405	14	0.1853561247401153	-1.473828789126247	-0.3956319164641698
Si	4.557943024181549	4.094517927666321	7.63786269975647	14	0.3826624898977468	0.7726454308630194	0.5242812849262913
Si	3.191907901433912	0.0106441140445068	8.874911548399206	14	0.060151780296460344	0.45216100936454157	-0.4520890184155774
Si	4.560397189243466	1.4134732766598996	10.058505580397236	14	0.0331652017456541	-0.033324867386035295	1.4272637577835772
Si	0.41503585874998106	2.7783610257285667	8.823762323854208	14	1.0618824380741416	0.15781521588228511	0.2402839332470988
Si	1.7397069674491636	4.210893936044321	10.256271375738073	14	0.3349286340765377	-0.8112652325453675	-0.3153221562366845
Si	0.3199751903154127	5.426677330555756	0.713231554174326	14	0.31954519672502774	-1.0697983571338134	0.4931837660791002
Si	1.6614708313922297	6.816329047449823	1.8885944271710526	14	1.3303274307822903	0.025120213198910765	1.4548324345788648
Si	3.2083962468167626	8.253481817758406	0.7235449035949332	14	0.5072256006745569	-1.368190813279451	0.5530871776016342
Si	4.5093238778908376	9.523901021292993	2.2008676818833997	14	0.4582195619409385	0.6336275659763368	-0.42797744983376074
Si	2.932658927118112	5.26979404272891	3.408143376478466	14	0.8098662941406751	0.8667728253020444	-0.9261167643069143
Si	4.580892666709297	6.6589816046753425	4.6948589734666255	14	-0.02933039816065324	0.05192372905092247	0.39586614415883536
Si	0.5384522734832472	8.140854836609327	3.474005662179025	14	-0.18028384816452717	-0.6314457260016593	0.6105428968593873
Si	1.950447411840278	9.493229922626998	4.829427036159103	14	-1.0818177602844417	1.2162480019483841	-0.6898614959859555
Si	0.3980302191848348	5.338546452110428	6.164172909960015	14	-0.6321206411481981	0.2855101900495675	-0.40318325278944467
Si	1.8110924801317578	6.747789195006943	7.403081631815827	14	0.572531418695786	0.460763670655225	0.6826464602365561
Si	3.2838875787324184	8.143242848746464	6.058432339833108	14	-0.0069358137116314585	-1.3765196518535385	0.33801884556082373
Si	4.468954326662435	9.417907768682909	7.562612121108046	14	0.9572903878715817	0.08337040400058959	-0.28592336667451534
Si	3.1948446575044693	5.564194078534735	9.040518346503587	14	-0.13092248267566428	-0.5247461407681739	-1.3269297151017145
Si	4.644557807727821	6.831029094915264	10.302616379680202	14	-0.2973681277860905	0.7258672548893093	0.25103603858542606
Si	0.53925478437402	8.141446959509816	8.927724356331293	14	0.5968671876615197	-0.08964930030292322	-0.356828537861963
Si	1.9599539124734051	9.550522693383115	10.248244097881992	14	-1.6246521412009214	0.5102872728897893	0.7175618133736349
Si	5.837276605448775	0.06107433221034024	0.6944940093489579	14	-0.4858951967175444	-0.5872962481072684	-0.34453094111569477
Si	7.366646552900564	1.2644600179335115	1.9220309349876834	14	-0.4246643235182179	0.42845721808650034	1.3238736993181865
Si	8.652889319147674	2.730348100502643	0.6740701071787901	14	-0.15062666251768314	-0.28821524995689535	0.1655323885007096
Si	10.12490251186692	3.8038690880377706	2.0775716437837497	14	-0.1428567822401956	0.7585768567722331	0.45530418561842256
Si	8.590341186531171	-0.10721111711053921	3.484593383566342	14	0.05946735206023693	0.7962389217228263	-0.31526430636698116
Si	10.22730940837459	1.3781432769307158	4.528217586997654	14	-1.5450293803149795	-0.22189204556048353	2.6039146809174247
Si	5.931038073819633	2.7428195535349227	3.263086279548752	14	0.2191527899523978	-0.21526964958737815	0.39100392688790325
Si	7.211387807390445	4.169144933663131	4.751184393257108	14	0.3742572894956508	-1.4356723006225895	-0.4037486388493453
Si	5.731526275054277	-0.04675927307763624	6.075544257867573	14	0.7849571686885485	0.2505022771209633	0.44497914087377194
Si	7.28617531556541	1.3618338697870238	7.400660000979211	14	0.3285597490879989	-0.7555113278990205	-0.5900876971533532
Si	8.714922326530235	2.6409407959513156	5.887142897042714	14	-0.7388809044672386	0.9260110918782563	0.47184307770080713
Si	9.81334392563703	4.055309848281186	7.51560450344394	14	0.6838510230790453	-0.6192198630938229	-1.0864876588774266
Si	8.666960371590616	0.09238093274389321	8.922474416841792	14	-0.20229302392605877	0.4576523761073138	-0.7004338810624045
Si	10.056843081484326	1.454451217901442	10.259763382587112	14	-0.5590675685762987	-0.24276556410210576	-0.4915647410590029
Si	6.050204434254334	2.6860549217028677	8.832352443808006	14	-0.30331046640201675	0.9893836958092661	0.27465344072471026
Si	7.210244771608182	4.100820891581418	10.406955809170787	14	-0.04374144348008322	0.39259749796533105	-0.9287490619336819
Si	5.8803009494617875	5.519376014233428	0.8702395565314942	14	0.145832065316671	-0.5206187453977402	0.2598441311911894
Si	7.486347559104388	6.869153784597855	2.1241736681057612	14	-1.1420996385101014	-0.3679431690504312	0.16282090083008144
Si	8.75665289285042	8.247469492922669	0.7457722863209864	14	-1.186936372856568	-0.5780916910611383	-1.3492278831012308
Si	10.003066176009135	9.425461131323765	2.1759562255699647	14	0.6013972181250885	1.2374387948865124	0.0008674909350179618
Si	8.728060731181197	5.279261502291676	3.4125842982321344	14	0.01258633187372089	0.5463215710621966	-0.090287705753916
Si	9.810875662410815	6.835338795293549	4.8091820722280945	14	2.2947816894074005	-1.207566664834904	-0.8861185930624348
Si	6.027481446829519	8.246210418403498	3.6032717306215187	14	-0.7983127752740576	-1.5128332281644894	-1.3361682107380706
Si	7.379691692772329	9.42054629435487	4.941654930811149	14	-0.20944249648979454	0.5885275504450874	1.2780476036445272
Si	5.979867608100628	5.38015555732282	6.255187405241241	14	-1.0387674299144143	0.40698257512102753	-0.4414400144005881
Si	7.321237450172945	6.685914520854183	7.610686861362042	14	0.06504845037868236	0.26304952819381794	0.0687960934933302
Si	8.742653415703142	8.014391049439476	6.335991576148648	14	-0.9606263970244739	1.4920301579086392	0.49481101863622184
Si	10.043787096870794	9.558163898432284	7.624485710786629	14	0.020139210862187888	-0.06234776135039883	-0.36240783640668434
Si	8.684827083652078	5.361647921022917	8.97003294738767	14	-1.182060528727439	0.36080578068170005	0.6307150178696731
Si	10.01471234419293	6.804524546036227	10.245614248003447	14	-0.7731388259739558	0.7760220634799698	-0.4477963009730581
Si	5.9630333154554025	8.103038137592922	8.861298144058841	14	0.09043734408354862	0.5935023821290419	0.22525273732444911
H	2.4364252333345746	4.711321291469234	5.4642023060186204	1	3.378637564879124	3.8469903671078303	2.9918883030750014
H	1.9841897413747438	1.1253057139476847	2.3193258806807022	1	4.580830362484386	-4.280258637469392	-0.25297310933362566
H	-0.0192331495241292	0.8776020517172463	3.2186098246131114	1	0.7199231164996589	-0.3386389961640434	-1.3686497555790975
H	12.771835027644611	1.454451217901442	10.259763382587112	1	0.2545741366164818	0.3042640893652596	0.8345861862412388
