224
config_type=vacancy dft_energy=-23145.00581906227 dft_virial="54.131371421242974 40.694770393992485 149.9261406672784 40.694770393992485 3.758605586180976 73.75642547860423 149.9261406672784 73.75642547860423 35.42113215963724" pbc="T T T" Lattice="16.682548522583023 -0.29298134794593833 0.2783965271847177 0.6523620114626968 16.261691337688305 -0.0988730698057575 0.7806049720461983 0.6667132080927308 16.61529814767717" Properties=species:S:1:pos:R:3:Z:I:1:dft_force:R:3
Si	13.782398632809164	15.281668144748814	15.383780246259095	14	-0.051527007500023626	-0.09820953835582423	-0.646236266466343
Si	1.4096846700923562	1.4646280595160617	1.3920827605512398	14	0.19517311907350474	-1.885121822316503	-0.370667255137128
Si	2.8043055899545593	2.7406980827514187	0.2232962758443581	14	1.2301157727136667	0.7476977388310906	-0.9354969278464107
Si	4.371785004481727	4.061587226811131	1.5098893974458771	14	0.5111722473409842	-0.7261246225318561	-0.5479480522877224
Si	2.884775753197989	0.1051325277777642	2.7083912028959003	14	-0.09667870224820807	0.7749329432663552	0.9655356655227648
Si	4.3874194650894935	1.5611498693158055	4.2260435964723495	14	-0.3596909494148839	-1.3305781135510046	-0.2951994004485456
Si	0.15937170732032177	2.7055493322143946	2.7194950241024403	14	-0.1271635266976078	1.767142540932996	1.0560254601548442
Si	1.6334965877691188	4.1605070214431255	4.128271897570757	14	-0.302326504395996	-0.9635345742520933	1.0114800320411508
Si	0.3275109945353178	0.25472539646413256	5.360951244669586	14	-0.4787616650067936	-0.031278781772261455	0.9119337760293815
Si	1.7717102925229056	1.4772304126497848	6.962392932896108	14	-0.43736044158910914	0.6185110093570583	-0.1381737710100779
Si	3.187639401893121	2.8759347485763707	5.662054368661847	14	-0.6591468147209345	1.1499098851411154	0.2846414135618895
Si	4.668130539916753	4.387377746494639	7.038769667612391	14	-0.15256347615535065	-0.8930472076791697	-0.4241927828025028
Si	3.193311462049573	0.26109666027034995	8.41307363178033	14	0.8070385925095762	0.6724281163626915	-1.0731878452773644
Si	4.650186537897828	1.716346379663064	9.635848984460642	14	-0.16903012017823907	-0.07903783442560806	1.278808907929823
Si	0.4248221201497135	2.955081597991008	8.418183325278141	14	1.1561862103381289	0.7363151984682629	-1.2113744718140433
Si	1.968450179626524	4.462087406160525	9.671870488002027	14	-0.43275867728710804	-0.04819511211564372	-0.5112272689948354
Si	0.5847645378476483	0.45842895142090584	11.144425080540492	14	0.12312226335539905	-0.06643324770411412	0.19120461801185615
Si	2.056207747019182	1.7535393413479707	12.390357590852776	14	-0.16309420932561317	0.81884048015012	1.0508516249191102
Si	3.297646330293714	3.221343020304376	11.061635363423138	14	1.1165467082858098	-0.33457330732129326	0.1838034342372779
Si	4.774040702302609	4.666672057840631	12.442215473001026	14	0.2957316192498162	-0.8325557843699178	-0.08310558015261434
Si	3.592772014015186	0.5425970509122611	13.658274131909721	14	-0.45998411152215607	0.7880522652729427	1.1932582066177477
Si	4.779585937930703	1.8601670635653291	15.34895356327435	14	1.1906986712715406	0.14812729103596717	-0.3832741558534101
Si	0.8093123715376488	2.7405278708844114	14.328910556662594	14	0.2920022309829414	1.392049127987233	-1.034959622935275
Si	2.1864799000564186	4.617909695430605	15.39637926190523	14	0.04925080796009653	-0.381883444985742	-0.7685118648398173
Si	0.142343845644407	5.348135292330207	0.17852554859003458	14	-0.146718068209994	0.5568008821260562	-0.9412052958782032
Si	1.6681196840109729	6.814170102864771	1.2737137569979606	14	-0.6918217066820365	0.07651146633803056	0.4673624124593851
Si	3.1042255745967395	7.918755007577781	-0.12087545673215265	14	-1.492410167274957	2.7884292828862556	0.8753924558878409
Si	4.452210111642714	9.415451316586791	1.2700024707996822	14	0.75852286356051	-0.5507179040491178	0.571608391885853
Si	2.837406791856112	5.360702601844252	2.6131576633052713	14	-8.653886193308363	-6.591484602283395	-8.294987144332085
Si	4.539929297928106	6.902404930982567	4.192380027912154	14	1.0171914853993278	-0.09410811114912401	1.4622588151855809
Si	0.4658715487429933	8.22870747991063	2.750396821683251	14	-0.053738415185882994	-0.01595268006939077	-0.20424989218522346
Si	2.0068546493060127	9.58251593279833	4.019356327611565	14	-0.9639060989708547	0.6330590945900522	0.2040544881808922
Si	0.36707190366418013	5.560169216307576	5.623304469016961	14	1.0826042614018752	0.5605035308976014	-1.2181375072481608
Si	1.995397054415104	6.90442911720492	6.894389954539072	14	-0.7687666613770441	-0.8661493322619086	0.24675437689578347
Si	3.15091869470197	8.238921860674868	5.523890726221886	14	0.9986191061192379	0.5276707730698424	-0.48097435824531304
Si	4.682568511224084	9.550986687550903	6.844541239919029	14	-0.2545121729782662	-0.005048622406642768	1.2961127038449518
Si	3.4294387089274574	5.8401994436668065	8.41421672127935	14	0.4904419393656943	-0.10656743042002959	0.08006164856409104
Si	5.019973487715156	7.300658981184982	9.735441282841695	14	-0.7766887510894842	-1.5242203965168932	0.5367033231700546
Si	0.8082877628480161	8.332448275364042	8.2305547792908	14	0.15939747409630425	1.9237285113617184	-0.09725334428726116
Si	2.14847759763133	9.82248129040285	9.720672900263114	14	0.4716137351062499	-0.37976382575981193	-0.38974485661262676
Si	0.7087188268800814	5.760311672007549	11.14737208208103	14	-0.5941834679283491	-0.35769705723910905	0.6778755172044892
Si	2.1522172524741094	7.1190846376829615	12.581847609979873	14	-0.05978616911993529	0.17704502679273665	-1.5457369484990846
Si	3.5308799754324736	8.416087383072638	11.133079291483792	14	0.3243763036215859	1.01879714067176	0.4708066651462554
Si	5.116318410672715	9.804902743274853	12.633391768294814	14	-0.4477214818082419	0.5493770726246605	-0.5760240081626753
Si	3.570077098414202	5.995265791998118	13.933681938959046	14	0.3841131075193745	-0.7996626055671353	1.1262624010695854
Si	5.141551485584662	7.242501591213665	15.375049378727892	14	0.5492832272804752	-1.4328967924294895	-1.6990599291660067
Si	0.9196680673912276	8.672898709279508	13.681357864814752	14	0.28199008975575285	1.2893311564525292	0.41213918395111654
Si	2.3941066716733324	10.06445581553558	15.129211711711616	14	0.7327380196363409	-0.7618460171868013	-0.341530718317614
Si	0.3880697068264729	10.777541744925054	-0.105798356551646	14	0.4558909118524803	0.45701088532993683	0.6279554505295583
Si	1.9361950308286255	12.186765841730216	1.2745381164322906	14	0.08548128146843118	-0.1237064184841367	-0.4244848603668716
Si	3.2369774809121425	13.737115601210022	-0.08489567178562206	14	0.7626394602885991	-0.8755022420850112	0.645524841624258
Si	4.8170108550030015	14.939400448841475	1.4009571400487424	14	-0.01727679930926703	-0.9276306311194176	-0.41952288420951783
Si	3.3926812893728346	10.907965753647561	2.7134491653360904	14	-0.07385422898965753	0.37485969947216147	0.031239700971395206
Si	4.7742175891447935	12.279961845148138	4.290492150547761	14	-0.053456622042794756	-0.12437953385695145	-0.917570667333274
Si	0.6724536867447444	13.585261584682527	2.6374478979735008	14	0.1176627783185966	0.4459052530100893	-0.05835354923554879
Si	2.194646732185184	14.979194982101523	3.9572907396742556	14	0.10114085553132506	-0.3574445746966705	0.5968777291933323
Si	0.739296888164819	11.195031404843096	5.31823474102591	14	0.2557833274485475	-0.45857411736458686	0.7759040497457751
Si	2.084094124563891	12.578913958389688	7.023607461498381	14	0.1353121307887531	-1.5535451382458423	-0.6546710345796207
Si	3.5246171799728785	13.70013623873077	5.670745186341988	14	0.5888283697675447	1.5200354083872882	-0.8917691112245242
Si	5.251596795092521	15.241062602004789	6.868554463117422	14	-1.8337475384724957	-1.2537105491261336	0.5412508371498006
Si	3.555679176957931	11.13694076462355	8.311784220960586	14	0.0026132714473985075	-0.1575578482397383	0.34501070936843437
Si	5.104223355652425	12.455760666378465	9.828597236408557	14	0.5213170576026924	-0.6036073402582879	-0.7534948099964285
Si	0.8434081447405389	13.933169634614227	8.347575437858374	14	0.8100419006340411	2.3262031675249304	-0.8119514605553152
Si	2.520899493899683	15.36288924269963	9.694211629918643	14	-0.9624300274065578	-1.7186219268838216	-0.03749751421010361
Si	1.0186996678574332	11.358902045432556	11.08414337971917	14	-0.21528944709834327	0.5452597045649755	-0.3858280347679132
Si	2.4923055689862372	12.815066236424485	12.440324786282208	14	-0.3615652851932718	-0.647398663181582	0.5817197777783992
Si	3.908266384488542	14.020528372240074	11.07223856149142	14	0.2904780797491577	0.6212790613447297	-0.004824936243789885
Si	5.504968840339565	15.487359173564467	12.289131592297212	14	0.07466027050752395	-2.553147435039505	0.5928122974611142
Si	3.8937166073469993	11.488406576324465	13.930079121107388	14	0.1689650712136393	-0.25860845797432613	-0.283365116880968
Si	5.4512202714725	12.905422037904698	15.281122465528114	14	-1.105886648517944	-0.6891888948342049	0.2511298839296115
Si	1.1167684031543912	14.179240925761693	13.873223351295541	14	1.1315046277068352	0.9677784406935299	-0.9948316108721279
Si	2.8234110376542403	15.65809335737943	14.968501671868355	14	-1.1492686514742705	-0.6676427751408319	0.21763635203457446
Si	5.643910117387619	-0.2164077014619418	0.13880444005693002	14	-0.7731997611700434	1.5108089969459368	-0.548932785625339
Si	7.009167821447256	1.2489312429104449	1.4676701794528704	14	0.024868501988068264	0.3606664267733481	-0.16308906711497287
Si	8.438496943484816	2.6847083909687557	0.20211157337711605	14	0.291179220169962	-0.6971017285674925	-0.7459491301028578
Si	9.966660754220868	3.9888850659296553	1.6750433020130673	14	-1.4167350814975708	-0.700928818836533	-1.1103220623057313
Si	8.378417160662593	-0.00386814811493242	2.8968574582679247	14	-0.22472771761807486	-0.25763529461065016	0.5460621465353936
Si	9.901970232295298	1.2916610965044741	4.205611497456287	14	0.8210521449465112	-1.1254447895777784	0.47649934943559535
Si	5.7876623827943225	2.713939776011582	2.8569895002809313	14	0.6548718379051244	0.8482999477978447	-0.11850250131615699
Si	7.385981851381916	4.108100122586588	4.215423710966125	14	-1.249692682842338	-1.679028190506201	0.7568249056070843
Si	5.834574108336592	0.18654219377732337	5.534949491345984	14	0.7741194455430602	0.3722567124460436	-0.12171329763995792
Si	7.314786566146593	1.4761407229521786	7.023260362789189	14	-0.5859957830363375	0.1225172822735682	-0.18080218299706904
Si	8.753001748888215	2.6735161263411236	5.642925558549047	14	-0.32107320461679173	1.080034184523855	0.5772105732679236
Si	10.137830480166112	4.102351300215604	7.151850422081882	14	0.5702076537074363	-0.8719793135753443	-0.42970626105102827
Si	8.640788741191704	0.22361834339663678	8.493959312228514	14	1.1514160386376582	-0.5938674790845029	-0.6086194529693846
Si	10.30202318830785	1.4349010575663612	9.770855363641996	14	0.4776121238181554	-0.3197519135927676	0.1308065258257256
Si	6.075612468200778	2.9967951866143756	8.379510187847787	14	0.4574230335127566	0.7906387972250116	-0.45184707740495145
Si	7.579320838632976	4.483871187649881	9.714957452768012	14	-0.4467035812119952	-1.7428990746482556	0.953077631804519
Si	6.170906082567998	0.5118003841904847	11.148925682553424	14	0.9082558098689097	0.7195346224857846	-1.024068935020192
Si	7.659475609299303	2.0661084039501114	12.436456638167275	14	-0.6461758454913196	-2.188163865323096	0.7224119464495622
Si	9.118042791354869	2.9522197023839722	11.001181781991017	14	0.11445660998437195	2.0701683859760722	0.12569748244405937
Si	10.573167354963017	4.3530883990116225	12.539773572696962	14	-0.6412035849126851	-0.6928542625786079	-0.039068202450182075
Si	9.025220586546842	0.5140148072053747	13.861790787561546	14	-0.3783746575553359	0.8683635681636201	0.45535046551418523
Si	10.617919726035606	1.8135857492943095	15.331703758673807	14	-2.4629944552043646	0.033353149544556926	0.6853227237642981
Si	6.210194986458407	3.2528138595190055	13.776713222702357	14	-0.45896955336282563	0.21754584912730524	1.2597888992134956
Si	7.732650024674535	4.534914722826565	15.243852741628675	14	0.5721784059353298	-0.27880706136940947	-0.19655457396202025
Si	5.762180665057041	5.27961834088456	0.04585541072054702	14	0.09965938464585575	-0.21850564274331652	0.37717909358146706
Si	7.229570495552488	6.627217398114077	1.3458385325266466	14	-0.5762561789730847	0.1634659911549066	0.9712458333282814
Si	8.743533296599981	7.927008614383845	0.22395709838685735	14	0.13257570339651953	0.5721686357351132	-1.3856851280988025
Si	10.224348170919688	9.356067399926747	1.5443372755893414	14	0.3683296061800494	-0.4613470544523666	-0.1101615785470646
Si	8.555267290483261	5.427966326700463	2.887365643566572	14	1.2348103539177249	1.0132240127798071	-0.7174296585601793
Si	10.15629346150503	6.72771415563158	4.225142474823487	14	-0.25090748331941864	-0.31285158113455425	0.37408168300228467
Si	5.88689423251583	8.050982928341808	2.807641408799145	14	0.9241601531582817	1.0643368152127548	-1.1582019569091249
Si	7.488778137847814	9.465702198461235	4.309846241072777	14	-1.0894850534596552	-0.007840842784323582	0.2085876039708453
Si	6.057399798430989	5.521569503604168	5.531540247774452	14	0.036062580330928976	0.6821682346470085	0.5928387798459117
Si	7.607459196490607	6.903574720382294	7.039797613789613	14	-0.20255142001073365	0.4160727179804111	-0.8207073597230795
Si	9.07116777817607	8.274624634151564	5.647970171038883	14	-0.630261732001731	-0.5557037914859491	0.4334536470551441
Si	10.505508137827583	9.494045811805552	7.170154872760352	14	-0.5255884348710546	1.182009106621036	-0.5372432552872858
Si	9.02706287969563	5.648741130671799	8.473917699260292	14	0.15796871086989797	0.5239272437237069	-0.8703114375541644
Si	10.608169256046153	6.868562806836394	9.747135839351378	14	0.26208022148812216	0.18966118348817126	0.2581662278592607
Si	6.303157365745144	8.474132967209743	8.297863560229453	14	0.23513015263286197	-0.03813566255056437	-0.7445003122549544
Si	7.8238385293080475	9.660195956417873	9.706617071284652	14	-0.27883071553835487	-0.38663639028056773	0.8198974615472328
Si	6.373985527345744	5.8731037338006455	11.188039368345441	14	-0.05467506885401293	0.49188510078189335	-0.01901358095302706
Si	7.97231000216472	7.188476010876764	12.59247583920507	14	-1.6519171704578997	0.4402300522369264	-0.42064054369218623
Si	9.331979083257613	8.299707522122032	11.059534414986253	14	0.09764003852741143	1.2537414023899753	0.6334427035038181
Si	10.849759970106216	9.823016957160787	12.649056266290877	14	0.26229953677193074	-1.2709109866073922	-1.3730761704982641
Si	9.24263787800427	5.824872031917171	13.86474780156485	14	0.4897125167863683	-0.798353141627584	0.9844412600523453
Si	10.739379243095724	7.018511117950924	15.34762023698279	14	0.20367216481978617	0.9430333517608287	-0.04986684479480401
Si	6.501883057963848	8.57089507611585	14.081138815588849	14	0.8870817291153622	-0.05683222621761717	-0.9591642094289058
Si	7.958594596920273	9.979571824956516	15.350241833483464	14	0.27871090203043597	-0.6235578319899768	0.9421118676140876
Si	5.931035843359744	10.817012541889031	0.1261603683283524	14	0.5314695811803611	0.09440738780838925	-0.42685207703513195
Si	7.497759316948145	12.141779846526441	1.4724494616794304	14	-0.3186177990360503	-0.2486094293842703	0.05149641134671385
Si	8.861334927263238	13.3839860519463	-0.03399231108765031	14	0.2116641885969345	0.30522979652350724	0.4564681249968536
Si	10.254475671379993	14.928113065817573	1.3800644677454836	14	-0.0009050290726921238	-2.066117352433647	0.615432367846713
Si	8.832570790482784	10.690631899379847	2.88538150719528	14	0.5037674640189578	1.0449902761207688	0.01588351733627879
Si	10.399536231921342	12.103323645789331	4.3194298366828106	14	0.14199109107890176	-0.5431987065403447	-0.6290869939809554
Si	6.176958616309525	13.591824754025074	2.8484655569802086	14	0.05600715852038165	-0.3212619237472906	0.19773728240928837
Si	7.739358374727179	14.805909289025244	4.240650110902895	14	-0.08350872946681356	0.7558152325478621	-0.4926430626302731
Si	6.022352841265409	10.942285138518875	5.726763246769153	14	2.2327650864222366	0.36717672255449496	-1.095902532338745
Si	7.7445915552657585	12.38143314904145	7.034237359467371	14	-1.0676805376816076	-0.8099277435578266	-0.44579752369717507
Si	9.16360116568005	13.534912246924225	5.6450799067873465	14	0.23679082955914563	0.7879216531226791	0.014524945285112542
Si	10.658874036232616	15.020538109602581	6.957281570654505	14	-1.6048196632034273	0.5508315469042683	-0.3053521811367463
Si	9.03190223669878	11.055242405947595	8.410381948040301	14	1.6067189387034206	-0.23317636970008146	-0.23151954943177802
Si	10.544219656365202	12.3950617796086	9.788367161018224	14	1.1253090352168744	-0.6703128680158057	-1.0060992228271448
Si	6.403108444041948	13.780457883776519	8.282913284577306	14	0.7206864776692109	0.44964543991930866	1.3582210952900449
Si	8.118423540040203	15.12402358725548	9.835137043337989	14	-2.3399441827979297	0.7236270508238642	-1.2904125633501833
Si	6.666958531572711	11.032485746826225	11.235119637010925	14	-0.5690213457127199	0.7295231095440278	0.06320496786413621
Si	8.282899934626952	12.490193525827783	12.577558938428805	14	-1.545070003779038	-0.09817508554453425	-0.3818101684841178
Si	9.431057408550057	13.842817170621606	11.067883140188584	14	0.6867129204109023	0.29593319390691586	1.8563570673262821
Si	10.879567071758037	15.359351505855946	12.378237504675576	14	-0.08861134508517944	-1.345640934069092	0.6336949289357247
Si	9.45876689925258	11.043199081984927	13.965443139593862	14	0.39514854866398197	1.0859929782138302	0.540893710620832
Si	10.93243454390177	12.52711615101803	15.288673531196823	14	-0.24701303009099032	0.2511154857398187	-0.033798464986006575
Si	6.828743242419431	13.960281715038434	13.802930856452877	14	0.6451682293163535	1.2055586315798683	-0.49527587447810467
Si	8.29519023267116	15.452330572580625	15.200633946102949	14	0.15732310632400878	-0.9041479548989091	-0.902183630434316
Si	10.9819144661433	-0.23979013950613207	0.1061988550622516	14	1.4277751506317546	0.8019434330966387	0.1720174874497191
Si	12.801868141756236	1.126173443178446	1.3304927645952755	14	-0.9943258744556547	-0.8445641317676694	0.6866620125255632
Si	14.171788315976839	2.280111445604625	-0.1674601084907607	14	1.6450286650841592	0.5541441589987471	-0.35444795144603797
Si	15.370014778700822	3.6948707655751134	1.7041178251392397	14	-0.027469689240462076	0.04169792897162952	-0.8434397874111688
Si	14.176080325015496	-0.23623738396830155	2.8306150046137586	14	-0.548795488601243	0.24829446898255217	0.7522923040381951
Si	15.427841757400888	1.2242321660126387	4.32099511836176	14	0.3015603150105919	-1.151608100205073	0.0011446560885299247
Si	11.33860845215141	2.7077654239730795	2.9950930679443015	14	2.5732208256054965	-2.332793167571002	-1.7099953543136606
Si	12.79694701630717	4.098958744082016	4.4336970679899705	14	0.8251551148164036	-1.345047780071734	-1.5168012150050738
Si	11.40935651404989	0.01102038401683076	5.737431525845409	14	0.1475945580136325	0.7369638883405364	-0.6721784620361051
Si	12.911751583116061	1.5196064925594457	7.0784423825754645	14	-0.8702435603737123	-1.7786253544033093	-0.08205836895571803
Si	14.11001308945972	2.6092394528765133	5.577365621106704	14	1.6931818681830841	1.3509944895667045	0.6632125035636848
Si	15.772479069495978	3.9422803892455165	7.165403959178294	14	-1.3093256140851925	-0.5685832293661667	0.5224725123335671
Si	14.243155481822964	0.23593534134155317	8.513171559531024	14	0.696658727120831	-0.5518823576486128	0.4831731675151036
Si	15.875196925003548	1.4311814276491117	10.121728771295972	14	-1.8930719370769324	-0.2054014902581178	-0.41515714737590637
Si	11.729389867643443	2.780571046969795	8.502167862952135	14	-0.9501964511827611	1.3362697693982164	-0.09728085511418676
Si	13.29627187189229	4.171949597639887	9.717597405450421	14	-1.0609380710900511	-0.5190298023098888	0.8526775117159288
Si	11.805272654196644	0.20564764147700465	11.269427340675676	14	-0.6612774896997413	0.2237267863169412	-0.588711384475478
Si	13.013511579685767	1.5389222019771946	12.808701647593445	14	0.8409877242673434	-0.5681723667360071	-0.8380394377967296
Si	14.280800673076095	2.760933269999767	11.315117545760598	14	1.7163593542020912	0.30260238399684797	0.4529112578969608
Si	15.909971876930674	3.8521665556154625	12.953772220597559	14	0.9098516949411256	-0.09854455337903953	-0.9973219834852233
Si	14.669552896114393	0.5795346947966566	14.290284144058479	14	-0.5748510699156237	-0.06889688082188002	0.16888639539084277
Si	17.6444808640497	0.8339630548654234	16.427088878849446	14	0.834887005563696	0.5483689422286304	-0.34616025055707256
Si	11.911933751289887	3.04464474616898	14.033447786694694	14	0.4679679077622799	2.084657335786703	-0.0037851812523220017
Si	13.49530127548154	4.565157366608671	15.42746795879099	14	-0.22200157464712186	-1.571509965338781	-0.9265751923854968
Si	11.297749260350669	4.982244859272313	0.18409080914365825	14	0.17864116897548457	1.9256573545728932	-0.36366279291344866
Si	12.837974751231126	6.465985041463233	1.3658551143379558	14	-0.4735312654540164	0.4206958224565694	0.6794266650441345
Si	14.253885504419603	7.833992835295694	0.07590448022252634	14	-0.14040523331743443	0.5988212277048321	0.6132734107093845
Si	15.733939431569159	9.185878895332484	1.570700090049955	14	-0.604181210965745	-0.10234310437902629	0.15772497008554792
Si	14.103047752862771	5.256299315104549	2.9427195439636487	14	0.9538029406153329	0.28732950417410436	0.0606058374959985
Si	15.710134801345038	6.591361100208316	4.368357404728461	14	0.2043008000705624	-0.5253580638343692	-0.33125118213712995
Si	11.656315576895864	7.915322401593132	2.9568988599828807	14	0.4485987429434764	0.9183044607916444	-0.7415175729730505
Si	13.151601797398783	9.363718590223106	4.458853380687385	14	-0.7866913792269883	-0.5560850864049269	-0.13960253423648422
Si	11.49212453749792	5.328307278567641	5.678479813828059	14	-0.7093134503960679	1.9361243243312165	1.6460537647753022
Si	13.073244263798797	6.8163010886899515	7.124012438107204	14	0.3701396643254336	-1.1082019288587373	-0.5127946147979977
Si	14.562464600609838	7.992708726304899	5.784603575419572	14	0.07933042621104092	1.0964815452568424	0.18675609158693593
Si	16.156575497348484	9.487834747403578	7.044556871090642	14	-0.42305712558259334	-0.4908520306642579	0.1258198670572984
Si	14.618926546886257	5.595364691670838	8.5529010117831	14	0.41242329108899295	-0.09737804289528834	-0.9202358751081396
Si	16.13682758328804	6.929468617836741	9.912666880016056	14	-1.2032472078970553	-0.7817229753063342	0.9900519260819725
Si	12.002252840406625	8.29779013550251	8.476055360060649	14	-0.23583386415898652	0.4853704341217022	0.9708149160766247
Si	13.485125275824569	9.803464286124264	9.899382010670509	14	-1.0635773107011832	-0.7850399582798572	-0.40519385714980055
Si	11.973353535378845	5.5101269274074065	11.13295914193061	14	0.6335319208584274	0.7883366295213511	0.26557255384447925
Si	13.59191319744617	6.899322761194698	12.534159918573305	14	-1.5690543026475074	-0.642206573098075	0.6511409069750574
Si	14.694266991706346	8.344618423855069	11.248057407647279	14	1.640460068040788	0.5785287789655635	-0.7922099996861541
Si	16.21686387314498	9.709675878659402	12.537460693798215	14	-0.10152934954519945	-0.19695155262345115	0.43351869601974385
Si	14.97923670069638	5.648824567861509	14.014812924744975	14	-0.27637813817346557	0.9031470235977754	0.4283672294002952
Si	16.338318383973718	7.1385655527363365	15.385462340003638	14	-0.007561363636023485	-1.3853884225448574	0.564213892985107
Si	12.290930498107349	8.391703698751934	13.957813642966826	14	-0.6582721246910203	-0.3497181460990935	0.2252805052619067
Si	13.610077473645926	9.85632174580523	15.348679889292104	14	0.26231393496172356	0.06377832435052921	0.019639902209015132
Si	11.64724595437444	10.738276203447764	0.11152047902192352	14	-0.8585859117416289	-1.156849555510727	-0.05407060199324612
Si	12.988305204674527	11.93251436850363	1.5679266378640113	14	0.5880714363612931	0.6530036727795048	0.4532601568889048
Si	14.351905846146533	13.267394260533832	0.1398440674407104	14	1.08418343428951	-0.4547881647806689	-0.239158817559002
Si	16.087739815838145	14.60033340353139	1.3223793322679236	14	-0.8069753433187007	-0.8913276524410547	0.8763771892254576
Si	14.429489082626013	10.609359070371411	3.0123478787762266	14	0.1318586221227302	0.27947837696850014	-0.9256799335130211
Si	15.840293479804272	12.074017167275768	4.255518618109128	14	0.7852808708483551	-0.32032912673714087	-0.09957788060720704
Si	11.715232245293533	13.486338452562944	2.868472126328753	14	-0.12812769119266332	0.22896181385929473	-0.056394109871063934
Si	13.296907663277878	14.764888229076467	4.282877672614873	14	0.08761041378404578	0.39043031329097827	-0.888623878086387
Si	11.891248003217108	10.895103076481947	5.804184615100597	14	0.04481050907220079	0.10367442271379897	-0.05894361790652277
Si	13.416531562164389	12.405024180059913	7.136713247124785	14	-0.9067751103150363	-1.0813181945207369	0.14872790123875376
Si	14.766967483844027	13.52944544225446	5.6613568337558755	14	0.07724757379118896	1.1183709075104549	0.3854048308322168
Si	16.180612082959996	15.067206198550897	7.0491592664750184	14	0.4931413428413178	-0.8164061576330037	-0.17339688545397852
Si	14.855352498903303	10.929886372128042	8.436759781195063	14	0.3088815374097136	0.9006705349534088	-0.016536835198128416
Si	16.238993084599734	12.42186514243088	9.920977224111123	14	-0.2809493063221568	-2.156368805602549	0.4359882426797461
Si	11.884352753859513	13.82154402473327	8.386578986559977	14	1.2322446479187494	-1.4649422778082193	0.797207457096926
Si	13.53110250484209	14.9790865137549	9.69098094193309	14	-0.004294517216243337	1.0080789739236589	-0.16457799420587063
Si	12.137437775173957	11.245474192253871	11.194413969639248	14	-0.29070279435413865	-0.04944518352229972	0.3386413101588316
Si	13.575843194708119	12.664492146387133	12.576252312037955	14	0.2639638132456626	-0.7738083417993223	0.012421266912167384
Si	14.978946339276188	13.86627637088033	11.116640496367229	14	0.10801959070484922	0.5705629804626807	1.443341650682059
Si	16.467395716454313	15.349989853170541	12.760066109711778	14	-0.3049536598121233	-1.3700695199368833	-0.41923286352940503
Si	15.019515169656742	11.16772741888256	13.947686036879889	14	-0.3899166064480127	0.309305769787538	-0.13972723284451138
Si	16.55378324519194	12.431014864654422	15.321319166042562	14	-1.5257352917715246	0.08252759567664505	0.9605623765020022
Si	12.22062131582674	13.99097491964497	13.949226287401924	14	0.06868065086445556	0.3176006697713997	-0.16634742888719653
H	3.600343104609426	5.894954265041768	3.3156754382461426	1	8.372629897010983	6.080762298373436	7.861625542847402
H	13.81542974747136	-0.41533364293594915	13.390303915951103	1	-0.3006987376178103	-0.38850095585873917	-0.2635231257937892
H	13.257625434362646	3.0639654618181114	0.7270750086161715	1	-1.0671735157124742	1.0125167017062344	0.9328535744667663
H	15.167886517885764	13.817515677214097	2.324498361786285	1	-0.3837166430790076	-0.5821136711134459	0.5323103326200497
H	10.463439106776054	3.5400130102180754	3.8597793648045573	1	-1.1484908921149255	0.5720727335066716	1.3595385296560887
H	1.802076423345781	4.254457297056023	1.5722069656961084	1	0.02806669989580046	0.06274551134342574	0.007794562888560917
H	16.26507388135913	0.369635094132056	16.86804775148898	1	-0.20305741353773882	0.5543953559885255	-0.559576133208624
H	13.563297578863398	0.06550320015334006	0.4391582980855997	1	-0.02875627034266418	-0.39768160162539185	-0.11807878315939657
H	10.100977942215222	4.108100122586588	4.215423710966125	1	-1.1052189324663015	1.747644820848185	1.2642286838803274
