224
config_type=interstitial dft_energy=-23335.037703321068 dft_virial="-42.575612441616876 -2.6260548356377864 -3.508058055510052 -2.626054835637786 -40.7277957411605 -18.370410955077098 -3.508058055510052 -18.370410955077098 -41.15083800951552" pbc="T T T" Lattice="16.3199774331 0.0 0.0 0.0 16.3199774331 0.0 0.0 0.0 16.3199774331" Properties=species:S:1:pos:R:3:Z:I:1:dft_force:R:3
Si	-2.380464548346832	-0.44780386078683093	-0.44853825977132045	14	-0.26064837293533166	0.952539499461012	0.5152644185685319
Si	-0.0670261473177417	-0.1172100779245242	0.0821547663982254	14	1.179937052843529	0.19180394266198267	0.3298237044633837
Si	1.3437869418414539	1.2467809959791076	1.4518251924485759	14	-0.13305135788074687	0.7379519641150692	-0.8708002046755245
Si	2.6557662476657957	2.6822698910171505	0.0105916653540819	14	-0.5103430658752364	-0.5275478742355394	-0.46661370659015794
Si	4.003143584542532	4.056705750477966	1.2521502685545975	14	0.4205958064596156	0.13784158420271478	0.8882536389202857
Si	2.658654883671455	-0.032966354414862	2.7918258995255507	14	0.02294222988221332	-0.6272435114664091	-0.5040019488241553
Si	3.9757913023646565	1.3226525710655896	4.0630705416768755	14	1.246650551027539	0.6030792352255294	-0.02394418962547503
Si	0.1075323313066959	2.725370951417968	2.7029473024248882	14	-0.8851073773400204	0.47515183313730563	0.2945178004281743
Si	1.4162150016895516	4.0571463898686595	4.179872620165572	14	0.45238443841686243	-0.29414344749356075	-1.0108328848320696
Si	-0.0082905485360148	0.0006038391650247	5.48282697846941	14	-0.26360642960616204	0.680059156952891	-0.27063711710410693
Si	1.4727800434726765	1.3148353018751346	6.844043656209415	14	-1.0738213656282491	-0.012092936762784475	0.2903415540566578
Si	2.78908414331679	2.6731633436094806	5.489257049578051	14	-0.8270582469743772	0.16187704806705508	-0.22872064418026483
Si	3.852167473308924	4.2156786506537935	6.794789964316319	14	2.052300489553703	-0.4689138174095624	0.2821338145431491
Si	2.857252689054849	0.047801213901549906	8.325375367857035	14	-1.0271195514825473	0.3664293022379279	-0.291108257663126
Si	4.082817714370926	1.413962844803784	9.699762267385552	14	0.8918662990056256	0.23147892596771968	-0.6336867013987003
Si	-0.1641300130446867	2.684097728489658	8.099849599709026	14	1.8493150669649285	0.7376100071074895	-0.9028022383743436
Si	1.4016575818192267	3.9363132769539875	9.437043270667507	14	-0.29894267268414915	0.1743636210543542	0.4823586413496807
Si	0.1012328200175193	-0.1293847810896168	10.781205571989924	14	-1.1058820205283675	0.5594180102314349	0.39390027703105013
Si	1.3357085530120696	1.0728753164519942	12.267482236799774	14	0.639967140364226	1.4834058993332666	0.3898070773613744
Si	2.693889714949518	2.6420737865994255	11.014777089012451	14	-1.3886436989906967	-0.43953611091101846	-0.40628040625809514
Si	3.9504953373433516	3.986415607673605	12.29857179380983	14	0.6566317594967658	1.5604788950732174	0.20819551040952272
Si	2.764375697483077	-0.11236304462689349	13.746480191674461	14	0.39267514534599957	0.7085901984695102	-1.671942224243873
Si	4.056444630839037	1.2947780496098549	14.983958800516701	14	0.5000427037416592	1.166485029808514	0.1768743053994788
Si	0.0129580620818814	2.595839290531453	13.57869450368476	14	0.6038783347590314	-0.12492692217961099	-0.2973843257496074
Si	1.2969322866310238	4.082393394957666	14.912771058953519	14	-0.007505827761108286	-0.3002917316456309	0.8103072387030805
Si	-0.0546229644685857	5.5005178340068905	-0.027417562087608	14	-0.04177249102591383	-0.30846116168986937	0.05307301312902866
Si	1.364023713858498	6.825128802364452	1.328935762377333	14	-0.01132109094567602	-0.49777576018088465	0.3741996967364795
Si	2.756264668698826	8.194978748166568	0.0201551721298785	14	0.43076761332718544	-0.6839281562386498	0.2869659498818354
Si	4.147444825006002	9.451861810176762	1.3885852798953133	14	0.30950811577623366	0.41142493089317944	0.2706309464513386
Si	2.7615686613645836	5.432414568178564	2.744041005601434	14	-0.3833839420505804	0.013246591719934918	-0.30358146090276034
Si	4.158460809773344	6.792521487453118	4.062695182195914	14	0.44466418047205386	-0.8823061580937192	0.1569875770797295
Si	-0.0230601281129703	8.088686735144785	2.786489266904927	14	1.2854125348340912	0.19294782741891656	-0.1391636465583349
Si	1.5491575378595843	9.353909305623297	4.137146919245716	14	-0.8970270216042269	1.1197104533822522	-0.30115613725426466
Si	0.24969565472643	5.5114358989096335	5.4756625083762795	14	-1.4133252816219903	0.4749620855646788	0.5427945287840175
Si	1.4497688752920053	7.04211922231495	6.845300294471763	14	-0.15728608240739866	-0.5285943141008396	-0.1927578227357576
Si	3.042566032807699	8.176227094095934	5.455964295614527	14	-1.0369946527961724	0.1367563206470803	0.9209113044757424
Si	4.256674433965741	9.634563957540319	6.847585091312397	14	0.2878290699378091	-0.3010836320842365	0.06085060672247661
Si	2.6568107262215146	5.551468803553028	8.196316986316079	14	-0.22161642307016366	0.1975447066208093	0.20728096824714606
Si	4.228897832374605	6.919572511769801	9.320143272314214	14	-0.21779653189601966	-0.032175326197397096	0.2521621827156509
Si	-0.1141256021896683	8.237932928770485	8.170661981791248	14	0.81620149764952	-0.43032101233307574	0.30637625238576127
Si	1.4754565197717049	9.516064601398577	9.5868769834808	14	-1.0569274039011523	0.028522042647998683	-0.495436825671146
Si	0.11004560783139329	5.303845785960601	10.866183694484075	14	-0.8437076965855281	-0.14130691995321037	-0.21744429046715938
Si	1.4582226236023512	6.746140111588248	12.044029105785768	14	0.7133549708488086	0.04683294051702927	1.074949052421666
Si	2.9270369125587847	8.168817824341307	10.808084574822239	14	-0.8298450680308858	-0.3348872392808833	0.25511921094435325
Si	4.129345970032695	9.528320904450837	12.257657610385046	14	0.8831597650600083	-0.6491567849994992	-0.5157583279005323
Si	2.7650774565127	5.456062215479126	13.73342420972798	14	-0.6868443038927617	-0.09376435436782021	-1.4753969062610053
Si	4.118509505017116	6.876781530940214	14.925468001396471	14	0.4400189644901423	-0.25074447524212123	0.7611731589245186
Si	0.1639668132703557	8.16261623291673	13.445180768304569	14	0.49130994452177634	-0.26105075091793484	0.43699817284950027
Si	1.5270276484603007	9.467904347993501	14.933187350722328	14	-1.522255300720704	0.673530092102907	-0.04281070335418962
Si	0.0345167522710065	10.857452506557367	0.0078009492130218005	14	-0.15250691183830742	-1.0770355043889661	-0.6401723145687738
Si	1.324056089124836	12.084143610316328	1.3892543989700705	14	0.1836280848544438	1.6355276595946158	-0.11247454489306981
Si	2.628903564810914	13.462512584338521	-0.1046273753236041	14	0.054733432944780294	0.2679318000862472	0.5105382127690358
Si	3.9346486392558115	15.012078121633932	1.2456875574910897	14	-0.7384019075460952	-0.8189006440146114	0.3062834354837039
Si	2.7321763820075704	10.898627809621077	2.7106503317733113	14	0.7573877205616646	-0.7916353576471011	0.7585647725772284
Si	4.081136756695317	12.327376553979251	4.1206311020834185	14	-0.49210415895517	0.5234986404668381	-0.5738257131139487
Si	0.004455353839236301	13.55662989419521	2.7754406421827182	14	0.6725597569550831	-0.7807017322731714	-0.11529890408725248
Si	1.3151943413786629	14.95709611766182	4.143266910783129	14	0.2501137831070889	-0.49332646242436834	0.3644886319422802
Si	0.1494420333548967	10.762617117693623	5.562337908523474	14	-1.1927540128644671	-0.6336717889878434	-2.032432016081727
Si	1.3979855868967792	12.154760152669352	6.774014633043983	14	-0.12750471237359146	1.2294999929894912	1.2991288674960175
Si	2.762613139920302	13.672159014444123	5.606565047367174	14	-0.2053896631736451	-0.17045682652038918	-0.42170009619461923
Si	4.141014753897361	15.001992375580278	7.053298406856623	14	0.4864798660673461	-0.8962364067182815	-1.1736818107101405
Si	2.770136649516961	10.860667542111688	8.187243078863276	14	-0.27867516366648587	0.1333035833126534	-0.40468066452789897
Si	3.9261948909454656	12.337413340100607	9.549585835046166	14	0.5183271192258924	-0.5090269170618527	-0.22547950881368617
Si	-0.1349335734168708	13.596940238454966	8.1133951809785	14	0.8776102913370005	-0.3755657249930741	0.11655591747827286
Si	1.3844563256047393	14.926414560087592	9.419548254859224	14	-0.1959382800167808	-0.7415520257843407	-0.3146091887314075
Si	0.0900046755435465	10.888460463680255	10.936734956927365	14	-0.8091769808043433	-0.4952743318149126	-0.40554069925748853
Si	1.456084706558615	12.157893588336508	12.276115504861885	14	-0.6185891709587907	0.8888082263378416	-0.24941907044958492
Si	2.6341259575895055	13.63060835189945	10.903393243031543	14	0.3858030950463078	0.513929243575779	0.5233993958014804
Si	4.127208052988958	15.022898266672078	12.21034599580649	14	-0.6634148495523804	-1.3769996772168105	0.9926423146920218
Si	2.784041270289962	10.813894486788422	13.525834096778949	14	-0.7604085122023067	-0.6563329970585645	0.04825424753800713
Si	4.0333029028389005	12.101149026801618	14.82043262663704	14	1.447073610054254	1.436357757300941	1.6700275221119587
Si	0.1387850880910824	13.657487354731765	13.548143505929998	14	0.08831515375229837	0.17554298706470614	-0.5137071000761182
Si	1.317658657971061	15.0446527965904	14.95645963854193	14	-0.03302147695825782	-1.5021343447062891	1.0444151198606515
Si	5.38769783001187	-0.0891397167395922	0.011815663661564401	14	0.3981942800262294	0.755224906766356	-0.4518848726531576
Si	6.663038786498903	1.2872382200357626	1.3994870248206241	14	0.6114962627120982	0.7329287956510959	-0.7246408376515987
Si	8.069527081638327	2.7689126512094786	0.0462508160454054	14	-0.527055764677263	-0.6689391264432506	-0.41183322241801895
Si	9.53533849474707	4.074608765722077	1.2690251252204228	14	0.16935870743815398	-0.08242140902692294	0.6818288487447489
Si	8.180192848612178	0.0855493217043102	2.627646926548565	14	0.2808256361562577	-1.0127077348315214	-0.07726582863896202
Si	9.349437631806628	1.4913195378366781	4.010177494816198	14	1.2301985623049754	-0.014011495552678973	0.6451672008742254
Si	5.405045966023255	2.7427680473616523	2.672885903993118	14	-1.1219606847584458	-0.42338725550570033	0.15091256942928358
Si	6.611467657810307	4.154690894986299	4.025779393242242	14	1.1432913458259903	-0.06441852957524609	0.44546687955300396
Si	5.327330233486833	-0.024349406330185203	5.438485599783677	14	0.636060345830261	0.16058892430166088	0.381414218264815
Si	6.6591056719375255	1.3843747257175738	6.828817117264332	14	0.1796505849241747	0.6679021996676348	-0.3820629081370884
Si	8.014806197305143	2.875873783306016	5.4277144146778316	14	-0.025809783645774475	-0.8654319938775873	-0.06283241470324674
Si	9.512000927017738	4.153630096453147	6.725511660112809	14	-0.39918518401661446	0.01828107304731687	0.3458846280667527
Si	8.199401462050936	0.1415758042321425	8.114896618902344	14	-0.9758059457240961	-0.8950981783930518	0.4653044997611385
Si	9.416855458582765	1.4569333453851363	9.558333342950307	14	1.1053647141379537	-0.06917044642794377	0.01618690776405626
Si	5.3493458830440845	2.838354155187319	8.212343204155385	14	-0.272600670237104	-0.03797085469954287	-0.1879948501301833
Si	6.749779466555829	4.2991063752918	9.46069091796807	14	-1.7461805763683607	-1.365049951020358	1.5988109900702412
Si	5.454381257803516	-0.043721219543274896	10.891659179257145	14	0.5356000618771791	0.40999025412453677	-0.5402321652219579
Si	6.65486247780492	1.4145177240365094	12.25372449582367	14	1.0710687402724985	0.05618996410864417	-0.6944892284516901
Si	8.026458661192375	2.852715735328447	10.838162293231443	14	-0.2053043024770162	-0.3969125840241356	0.19811343511762608
Si	9.528467784247734	4.118264705355619	12.102732064612628	14	0.048542211333863716	0.24913804863809272	0.13328352869115628
Si	8.146328895438495	0.156182184034767	13.547817106381334	14	0.004065431732218143	-1.1975768922240007	-0.3927607631531605
Si	9.446345657804375	1.3756435377908653	14.997129022305213	14	0.2975663600062739	0.19260304219548469	0.18831880940052195
Si	5.425527537701796	2.7702345693815595	13.59421480222364	14	-0.9230604914128543	-0.7134526728509742	0.40036686402175453
Si	6.772627434962169	4.117497666416265	14.84581019154551	14	0.33814020173193465	-0.24200425981680984	1.1296354341390877
Si	5.431794409036106	5.395188699653663	-0.0167442968463606	14	0.41473857142978626	0.7929756748504942	0.027374558343616597
Si	6.929217618432763	6.673189812462291	1.4923803363698296	14	-0.7770816159824029	-0.2138401150293758	-0.7086259368334603
Si	8.067731884120686	8.142705860448347	0.09446002938278279	14	0.8434958375071478	0.08417156041834775	-0.20470960581646597
Si	9.595036972197349	9.530148741923345	1.3061367539032924	14	-1.024504480261425	0.5836172535046686	-0.6099289169089359
Si	8.290891255540894	5.317016007749113	2.818019463305676	14	-0.6836964996493045	-0.20795176962517267	-0.43600906863283934
Si	9.503645098571988	6.7621989693824185	4.111965194066443	14	1.100576801810774	-0.43294431109122283	-0.04879597942896233
Si	5.568196780421956	8.066638445632668	2.7770563199485956	14	-0.4940232319661286	0.43360817048488504	-0.7561057674490388
Si	6.863627629129135	9.495240310193942	4.036436338506056	14	0.36935907675023666	0.7243778135773475	-0.6414594098920399
Si	5.483594017408765	5.472512752731691	5.552578562018478	14	-0.8249226868954622	0.49177248636887094	-0.1467800318482096
Si	6.9139584395328155	6.9782591506192295	6.743055635853391	14	-0.7985673147007523	-0.5924891095223715	1.0123115275016865
Si	8.21315920302704	8.141710341824927	5.315237130208906	14	0.5940410286936129	1.2757130400138328	0.750328750905198
Si	9.686249326070945	9.650100576056628	6.5626546053079045	14	-0.1753948913982656	-0.9691935770617394	0.47973559970206564
Si	8.029363617175468	5.453842698548224	8.137532427602055	14	2.409801628567417	1.2778241745922063	-1.2789230650060377
Si	9.639639470522011	6.748114828857653	9.431935117730948	14	-0.7387934868863537	0.5846649789226289	-0.8989538079311459
Si	5.769030422713684	8.413797005589572	8.30086276175252	14	-1.8800289768983536	-1.5962301145498765	-2.3347322952034575
Si	6.902126455893818	9.594759532580985	9.717877442336292	14	0.8345784729252783	1.7728395961013799	0.08166164740481918
Si	5.192364020115096	5.546262730751869	10.899296928695836	14	1.4593082147201786	-0.6459704141762397	0.2609206529887353
Si	6.84017582155777	6.790514130228847	12.211080394790981	14	0.45917832711482165	-0.7378228946279978	-0.2343822180952309
Si	8.272580240860957	8.088376655573557	10.765114074240886	14	0.011447589327427307	0.012965055687378702	1.0018543279435803
Si	9.608484633602222	9.642691306302002	11.97318408374868	14	-0.8455020709884594	-0.6591401298471022	1.2613850413962437
Si	8.288737018519727	5.380353840166975	13.672289574263587	14	-0.49208821810218517	0.8333286586291542	-1.020218190582206
Si	9.482216968202328	6.875573852610164	15.018540832697441	14	0.4076595471518225	0.04109346211086272	-0.3227066278266818
Si	5.578478366204808	8.137646667444086	13.580587621067	14	-1.31736726019502	-0.16535832467053557	-0.6362408374237354
Si	6.82801743837011	9.399572602481111	14.913228018321647	14	0.20659011224762225	0.9409605266517252	1.117105152361346
Si	5.49235784529034	10.812637848526075	-0.0225542088125442	14	-0.4107266186882272	0.41231890421299494	0.004267006389317751
Si	6.654993037624384	12.320832243028578	1.4803035530693354	14	-0.343389627464081	-0.0297464030014532	-0.37467020901006653
Si	8.086467218213885	13.464601541449959	0.0306325976419287	14	0.014029750400452025	0.39302018767996344	-0.38195440749257814
Si	9.503057579384398	14.827091177429745	1.2681438464390355	14	-0.02976337229656618	0.8163292815839314	0.7644618597395201
Si	8.212963363297842	10.960676363821724	2.603395440082978	14	-0.3603033867021431	-0.4417449474915576	0.8172438237463079
Si	9.47301250093006	12.311089216501017	4.097848413586811	14	-0.17129680662848157	-0.15113137049202818	-0.06797642511726701
Si	5.269133193960398	13.918476433841901	2.7625152200557035	14	1.179906970911283	-1.4752776069741504	0.31892298923755186
Si	6.897687422032014	15.119447253166298	4.099888410765949	14	-0.7152563032330581	-0.7600241319569444	0.25012303908624145
Si	5.462427006678035	10.889553902168274	5.267843915743184	14	0.287064166105065	0.14113799833367663	0.8809714973220302
Si	6.735989085624859	12.175992443309816	6.7891595721019	14	0.21610165926897804	-0.2756520580310558	0.09563020549865169
Si	8.109054066981296	13.602668550533982	5.572309414735097	14	0.17718900869066492	0.6193119086642843	-0.7499364002333435
Si	9.513828764490244	15.003885492962516	6.873697055205357	14	-0.0025705910990840497	-0.6231171445381035	0.2743986441874836
Si	8.25412234638412	10.804804259358185	8.017352113784705	14	-0.6485150371115903	0.20783272744884979	0.5616481869861313
Si	9.396961406091814	12.267416956890042	9.465260511649339	14	0.7306831922644786	-0.7962288944120776	-0.2927895034319708
Si	5.498494156805186	13.464960580953486	8.306786913560734	14	-0.2691916416931197	0.8472018287156093	-0.8153406915883343
Si	6.851763005535271	14.933285270586927	9.505228136383	14	0.18265132194331954	0.48253116251666267	0.03148472730840532
Si	5.301805788781464	11.030117867799564	10.868974410625135	14	0.435465794078692	-1.1016546091609802	0.09349258853548056
Si	6.534404724371209	12.205368402689395	12.390534866645348	14	1.9772614952325218	-0.044130451715021626	-0.9907060152754182
Si	8.040918161198102	13.431439347305899	10.874343683200626	14	-0.2522082055008816	0.928714094901328	0.84512823227491
Si	9.482576007705857	15.030748175817399	12.016970583201688	14	-1.0097627907978237	-0.6642455736813203	1.2524594492773495
Si	8.047788871697437	10.805440738478076	13.541860314618253	14	1.1408583088615343	-0.17199280483864568	-0.34498782653108506
Si	9.465146271807306	12.038969912781507	15.055636141402877	14	-0.6694145238169459	0.7978890571172972	-1.0082872334545907
Si	5.51435717487016	13.66161630902234	13.702807932063486	14	-1.7178889047570471	0.5613352834686692	0.07477905557331478
Si	6.877793369541065	15.016190755947074	14.988250954581606	14	0.3370739643556693	-0.17702522928177153	-0.008255304961931453
Si	10.880414714805738	-0.0682338256477911	-0.026063003960660698	14	-0.0907499904904786	0.6489683229795323	0.8206387112110315
Si	12.353472197894778	1.382448968380468	1.305940914174095	14	-0.19482961940273294	-0.7397926184137633	-0.4522255441080772
Si	13.729768534782966	2.762580499965436	-0.0232722878196006	14	-2.2813841738051726	0.1044804642316654	-0.17774873831886118
Si	14.925794400945135	4.036468978460922	1.3495152539204722	14	1.4513290464696311	0.958425530870427	0.5646023869989814
Si	13.4990366938338	-0.0470178549847611	2.7827683120501803	14	-0.001416164810337562	-0.7325814393223439	0.17113302721958817
Si	14.915414895297681	1.4572107850014988	4.0011525472956935	14	0.894317333707323	-1.1430254935358868	0.29206548017381706
Si	10.957281808515638	2.699161067660409	2.6025794412113235	14	-0.4733901117719402	0.8374334282727708	0.5971101571142736
Si	12.22382629716623	4.127175413034092	4.078590840215753	14	-0.34431728226359043	-1.2598521484043714	0.47931188154530524
Si	10.777109257654216	0.056809841444621104	5.548873927141165	14	0.346740806138362	1.3299204248101109	-0.042483144536402756
Si	12.350942601392648	1.4736286822991975	6.91988259134103	14	-1.5493766051902862	0.011618824941749168	-1.56121551674744
Si	13.659919031369299	2.7366480558242396	5.422475701921806	14	-0.7837814022256447	0.4771639801608535	-0.16376886736162
Si	14.941363659416309	4.17812638258023	6.6987468971225255	14	0.887406973938361	0.0017352389805679388	0.07930882892635167
Si	13.515030271718237	0.1187115158483694	8.239793406197858	14	0.8763684474673692	-2.0807657107741266	0.33092876552998335
Si	15.077472271208364	1.3707475445609352	9.535518014498834	14	-1.1426737663280906	-0.7509800118827916	1.1171498895939165
Si	10.837085174720858	2.7763545609189717	8.109511026349422	14	-0.7296542359153554	-0.3564737253277826	0.11081386796678616
Si	12.247653464218557	4.069288453078887	9.353892985645864	14	0.06981296564744877	-0.4733263483600005	1.659218595346056
Si	10.964054599150376	-0.0454674571286166	10.806681056762992	14	-0.7788083703154144	0.7398126730352603	-0.5780001597117411
Si	12.118121803332043	1.39093535664568	12.316278969324742	14	0.29860328678188963	0.1653678377602201	-0.92916609521661
Si	13.624227240723108	2.6971537104361376	10.912287630732582	14	0.0896940375354938	0.4979665361956397	0.0303524125254121
Si	15.000180858085203	4.0896557849153945	12.415243312479062	14	0.13401243704941823	-0.7516415572816657	-1.9092809563467423
Si	13.403450586008132	-0.1774307946526632	13.584178016102282	14	0.6504778189129913	0.00042268971463234415	0.6379431662562055
Si	14.989752392505451	1.38135552989245	15.040882881803354	14	0.5264523262586243	0.30717432347713525	-1.1859184722603213
Si	10.723889811244876	2.7612096218610556	13.58874760978355	14	0.011161939526358857	-0.033240792242066455	0.3658831994679285
Si	12.197828573115302	4.043633448554053	14.871530475980077	14	-0.3361560797563764	0.012417153143655147	1.575836878482058
Si	10.897599651042793	5.565047024777368	0.1038276964293822	14	0.5428518644326568	-0.708934212361346	-0.7707042463463076
Si	12.217069826508927	6.925447703645718	1.4942897737295022	14	0.8840547668219519	-0.4410237524492561	-0.637604551685542
Si	13.576246507069795	8.283073986350441	-0.0942315496987194	14	-0.17493569198808714	-0.8316749236872351	0.6849961933886394
Si	15.019552671298294	9.411682025736472	1.414746203720573	14	-0.06900049636628199	0.6681102020880348	-1.346537221383696
Si	13.59584679996695	5.3179788864176665	2.763935058092383	14	0.14638973806061112	1.3296905679944897	-0.8652121643727146
Si	15.020792989583208	6.719326388665664	4.081610036040877	14	-0.10321779440894067	-0.852074330407822	0.22949146155524522
Si	10.727023246912033	8.21379568214693	2.7458851630513745	14	0.40022262501329425	-0.7241795813571641	0.0774843725911746
Si	12.167081735631342	9.529740742487515	3.9292793666803214	14	0.6481028889287705	-0.36800384713598666	0.6685701728298092
Si	11.010321735173214	5.498314637053422	5.498184077233957	14	-1.177595804339002	0.012587617426380964	-0.4174824550274483
Si	12.239281315795376	6.871461218297022	6.855027001021891	14	0.3615069211025045	0.10618227884307142	-0.51759435420965
Si	13.513006594516531	8.040803921356071	5.264971599714958	14	-0.08004416504791402	0.513705043191862	0.27090142673101814
Si	14.862423928572406	9.377589592878724	6.632308268992375	14	0.7061023969617349	0.7680004719916399	0.4805904922210149
Si	13.529604011565995	5.4135813142207665	8.069445481751162	14	1.002458280583283	0.3970863907437776	0.022548079436634623
Si	14.956035319128668	6.646212889765376	9.477761614363093	14	0.7628837152940131	-0.05862557217842046	-0.13247980116807798
Si	10.972720507167352	8.287251900573313	8.121277730078686	14	-0.8767438288441107	0.0895377143320288	-0.008625544128032776
Si	12.39644269847613	9.558268063040574	9.474726098560536	14	-0.3863222012104457	-0.14664864836635	0.41843376399590304
Si	10.981043695658233	5.473002352054683	10.76813327006601	14	0.07354363946698363	-0.5721267267183948	0.5403085270499663
Si	12.277486382966265	6.752113223328762	12.242055711959004	14	0.3399852269096729	0.23861297189953454	-0.1810901467929256
Si	13.718638310173592	8.071616038749763	10.795909871657146	14	-1.3615851294909265	-0.4124222626468649	0.09625678386517177
Si	15.016239715879374	9.316960876714758	12.144935526254624	14	0.2012432416238423	1.957995688847588	0.2562201582424406
Si	13.594002642517008	5.3252739163302625	13.65507199807167	14	0.07170632760520582	1.8950447461890825	-0.07022228561441635
Si	14.960441713035605	6.898062781512976	14.889890450592313	14	-0.04746491820472167	-0.5250490169748874	0.03827295957466027
Si	10.799859306195957	8.178854610462665	13.451447639638879	14	-0.19501319632259148	-0.1958937998947422	0.14051656217779684
Si	12.119917000849684	9.504461097443643	14.834271967500309	14	0.9457196425993194	0.26394170173990933	0.26349921451431185
Si	11.006094861018042	10.899476448447599	-0.005809911966183599	14	-0.13876461101264795	-0.45670055291779504	0.3840038355432681
Si	12.368404977246064	12.183940272319735	1.4628901371482177	14	-1.6184308376577594	0.517976677570756	-0.3609585043377168
Si	13.678817565236828	13.186574405899666	-0.1337585350416876	14	0.8855712047397751	-1.3012076061473572	0.2804949920120867
Si	14.870175917853128	14.731374509784613	1.4216821941296403	14	0.023604803723215485	0.5518982985015978	0.9556276540610421
Si	13.620522605845796	10.758667683154812	2.6321349203426676	14	0.6798881784491011	-0.2284301092790881	0.7409457591498497
Si	14.906504187619209	12.153895193865397	4.01407796942271	14	0.9744013508876991	-0.4432130486293622	0.9306537367548477
Si	10.885327028013101	13.637479062398786	2.788219184512836	14	0.2648747558605911	0.0416765887974723	-0.9047045992007211
Si	12.041483189306204	14.930608794287897	4.336364883771568	14	1.7293416362951148	-0.014450640341360264	-0.8571026410824355
Si	11.068665654496547	11.049081681576826	5.250348899934901	14	-0.8181899905041224	-0.3850502754085684	0.5870044276534317
Si	12.335732382424997	12.161369743529757	6.824541283176861	14	0.16132014665471098	0.54089216795764	0.3234818160807064
Si	13.70620248736957	13.553659658302385	5.480803301267706	14	-1.5736702080287692	-0.19121721642792486	-0.6129561363128783
Si	14.851881223150624	14.982098323089328	6.770815917467095	14	0.6110956845032192	1.0870517593846671	0.849398581101144
Si	13.78484845861968	10.826607749208808	8.134937551190191	14	-0.6770296235541605	0.08827273051451594	-0.3764954366768397
Si	14.850510345046242	12.282659815812558	9.605987677054959	14	1.48305031546749	-0.4397867936797329	-0.18353423951025838
Si	10.902740443934219	13.520024184812765	8.19920562232174	14	-0.7730210693502929	-0.0765258645278234	-1.5549106522813727
Si	12.204797203479236	14.776385007545104	9.47311042079466	14	0.864403551749528	2.1812756170598875	0.38398660913762317
Si	10.967465474433894	11.013291971066037	10.72938964363983	14	0.6375063354623123	0.27246517298673223	0.4249993385414332
Si	12.288567647643339	12.343680211434917	12.442970954137897	14	0.5060552335328254	-1.0928310899232958	-2.0078738465058006
Si	13.583737376711587	13.685312916255203	10.926241211437883	14	-0.07189607517783275	-0.4703083849352107	0.973494779151815
Si	15.013236840031684	15.003265333820059	12.278481901589682	14	-0.07670507056863772	-0.3160724047691037	-0.7116528991268707
Si	13.655267837800865	10.761996958551165	13.531758248587165	14	0.4054669085348002	0.2416124233660193	0.1423667295661754
Si	15.18990059574499	12.268853114904154	14.796736019404179	14	-0.5856898215032399	-1.9376101660957297	0.04839051611997498
Si	10.593689031283605	13.418056965810756	13.414009611407346	14	-1.003290804485947	1.102800807912702	1.0747091682952965
Si	11.974473361965897	14.604029725874133	15.092323450672486	14	-0.8746949150144847	0.45832214904321233	-1.8544891593111947
H	13.043913323168223	0.00390863459522745	12.050108297379598	1	0.03558178363606128	-0.12947520749095295	-1.1443100177538328
H	12.71325752439167	13.491380992419932	14.28092681265362	1	0.6535369200229034	-0.6598160734357692	-0.03275511044709048
H	-3.122746081936519	-1.7406055611295372	0.1384766405175968	1	-1.928077793121281	0.9545750435429733	1.2654461022494174
H	17.731236057643116	9.316960876714758	12.144935526254624	1	-0.15849141658148408	-0.08827633006196414	0.08984033342821023
H	12.250334836510815	4.074608765722077	1.2690251252204228	1	-0.016639422300402322	-0.07636568466637816	0.037079966706111564
H	12.228825106253991	15.003885492962516	6.873697055205357	1	-0.07296231255409816	0.08558489701283313	-0.07383288881550029
H	12.218053921148144	14.827091177429745	1.2681438464390355	1	-0.025820325177587082	0.16961067575952848	0.10044742842648112
