224
config_type=divacancy dft_energy=-23035.9839415434 dft_virial="-78.95026177384597 12.910824284290294 -21.298723247138643 12.910824284290296 -69.90835096138146 18.35566992386588 -21.298723247138643 18.35566992386588 -77.97318382984109" pbc="T T T" Lattice="16.249967316 0.0 0.0 0.0 16.249967316 0.0 0.0 0.0 16.249967316" Properties=species:S:1:pos:R:3:Z:I:1:dft_force:R:3
Si	1.271949941692584	1.0847503182122638	1.0283466816584281	14	1.4494503398121987	1.142869941664018	2.8963568280206435
Si	2.626758466729452	2.8334418010216558	0.184973377958028	14	0.1411894204400796	-1.0177771831912574	-1.0098381241837042
Si	4.036881880509984	4.057486839066672	1.514480703883884	14	-0.33744420352177057	0.38714572624448906	-0.9436290768635069
Si	2.726533266049692	-0.036789926003424	2.68392585174714	14	-0.367263111693252	-0.04837791770390625	-0.41369058890129384
Si	3.983874487125192	1.5773193274948558	3.842451021574044	14	0.9990461667129146	-0.947901482573997	0.33376238070331854
Si	-0.047108655249084	2.5614335981191316	2.5393336425693716	14	-0.26798630751903424	0.4018267376225346	-0.6711909004826363
Si	1.2582024693432479	4.030983142374276	3.920434614723528	14	-0.05407960086186663	-0.30580109612564416	-0.4167509755638662
Si	0.166822164466056	0.039617420316408	5.5727800413163555	14	0.03870361971578508	0.598123686831476	-0.8358390858637469
Si	1.61516550137382	1.3844972153231998	6.781728859724807	14	-0.4828209260862434	-0.5679697636367794	0.7542368309918231
Si	2.6294722112712243	2.7763069159386	5.2629581644695005	14	0.7161672458479866	0.0028886368271863667	0.32758478595059876
Si	4.04226061969158	4.125557952153396	6.551093073608819	14	0.8002804421755669	-0.29805461290657004	0.41123595465214857
Si	2.6159684884316277	0.012691224473796	8.449008006281039	14	1.2954807261572594	-0.3174284057149498	-2.258910399312291
Si	4.11668546999886	1.330693573539924	9.601325688593231	14	-0.4515377734349377	0.7281653088244576	-1.1641442955250512
Si	0.10334979212976	2.5389436433537877	8.119117419798924	14	0.36296473781902844	0.906197640060131	0.42859682910538444
Si	1.362299759969544	4.041350621521884	9.532734576552397	14	-1.6859632328862366	1.4668340971027842	-1.48551446280632
Si	0.002291245391556	0.103219792391232	10.856619413786914	14	1.2536570701354743	0.04474494588653702	1.4152433261908208
Si	1.6345517123818079	1.2870949112310959	12.278166554590594	14	-1.9801596451493926	1.3264982836289938	-0.723310290648422
Si	2.658299653289808	2.74039448817024	10.665081049033223	14	0.872979730655414	-1.8802842876566443	1.6459576054363285
Si	4.20679153876608	3.5103504395369516	12.095598171795334	14	-0.33235341498787746	2.6347797718436747	-0.0009225125888691308
Si	2.7663781859085237	0.10744478389339199	13.831923429477252	14	0.9102872401823587	-0.7687427500975665	-0.7978420058899386
Si	4.120682961958596	1.4376508584138359	15.136162056226727	14	-1.011396214007714	1.5661448398672277	-0.5154341115196618
Si	0.012626224604532	2.6462584275086516	13.636338822861877	14	1.1284997769191782	-0.10934628105004564	-0.17219257972202118
Si	1.362039760492488	4.158317886262451	14.961653657220202	14	2.0490948354405423	-1.6811377824213825	-2.5162495025900595
Si	0.185753376389196	5.302331835276167	0.06655986612633599	14	-2.7488640857776883	1.689252447922302	1.2436922372461765
Si	1.1793413779586999	6.764178895023528	1.5652456017790681	14	2.628138863912264	-1.292646339652328	-1.789629685173543
Si	2.555648609754636	8.064030030597683	0.060303628709676	14	0.8510248052161375	0.2828462678273621	-0.024602906808496968
Si	4.319793811481544	9.457464727944684	1.245332495228976	14	-1.3762409440368344	0.5313160861927484	-1.555333856217069
Si	2.751151966533432	5.413660361358083	2.782189404106992	14	-0.3535192682044004	1.401842982372741	0.9301035202163359
Si	4.121430460455132	6.957082257031764	4.21329152569248	14	-0.02590234343729981	-1.197598232398158	-1.2533027718223582
Si	-0.058207382925912	8.023632611850108	2.7767294150888158	14	-1.469105925763667	1.554831719348044	1.224268822105118
Si	1.5365156595643799	9.429937283311379	3.9261708531860755	14	-1.2374030565225624	-0.34760084086795157	0.8300607837672461
Si	-0.121046006536884	5.116285959475284	5.418925350768468	14	0.9304537047609401	1.8839874506492533	-1.0654076805785966
Si	1.321902341221968	6.639102896592276	6.648852876981875	14	-0.7874879076551703	-0.5380768076320778	-0.856122792844927
Si	2.65556965878072	8.078102502293339	5.4676427527818365	14	0.2685257254152013	1.3955954535553132	0.4685227522903679
Si	4.013075678392044	9.718650452614753	6.7506426722493	14	-0.4623047911841217	-2.299095232803013	0.5594339510844197
Si	2.5848660509888037	5.278574383060176	7.918804072694592	14	0.7564780634993963	-0.26071984966323175	1.1844277453956993
Si	3.96393577722846	6.634439155972584	9.28190008106262	14	-0.1224861718991944	0.07012201250693058	1.0243890376325502
Si	0.221357054778552	7.941619026806255	8.116744924570789	14	0.6093596741910552	0.5989978626403263	1.3134591801083948
Si	1.8643912500993118	9.314838764812151	9.27036260426826	14	-1.3077325572288288	0.6034553879338671	0.4639371859518838
Si	-0.004322491306056	5.492748952285056	10.929175517852855	14	1.2005781434642093	-2.5849777189029384	1.070585372472311
Si	1.3278660792269399	6.698431527262992	12.37686885606798	14	1.3064477759003508	0.21205345394240488	-1.5530540571296938
Si	2.8979866712008078	7.941700276642836	10.93200301216584	14	-1.4425654339859064	-0.6162450942384117	-0.8300327587192564
Si	4.0970230095465	9.42046355236615	12.111913138980599	14	-0.8743915245867073	2.4124010160460867	-0.024527830533148644
Si	2.925302866259004	5.31024556935906	13.27532954896962	14	-0.8120383639151361	-1.4206966405748551	0.655230249986753
Si	3.9081171394979997	6.687446549357376	14.773056536550706	14	0.2108414348944871	1.3611215592017036	0.5957024769514926
Si	0.049188651065532	8.060731287232535	13.621713852277477	14	0.6068297065560294	1.2086760967805479	1.2860838504331822
Si	1.357782269055696	9.672614295208524	15.036712256252807	14	-0.6924354295219557	-1.5713811529622415	0.11274682494647348
Si	0.0006012487906919999	11.079763964970228	0.067794863642352	14	-0.33594190668320806	-0.12796391178376987	-0.6126555741009531
Si	1.3806784730039399	12.434409990333934	1.3524035298740997	14	0.39216426671888616	-0.5880177002601019	0.9152204199601267
Si	2.738070742844052	13.787723518377732	-0.039259921035456	14	0.43652508947059304	-0.5380909487113386	1.4960580515031834
Si	4.286026379398896	14.97166363708686	1.3580422685327518	14	-1.1376871075596635	0.26615130965204464	0.02881000644385527
Si	2.864804237941536	10.694964738927347	2.550058620997932	14	-0.2486364259901319	2.387991713468197	-0.030217172385572314
Si	4.03819812786258	12.327615205133183	4.11059173225536	14	-0.5301308066401601	-1.598515055847892	-0.03802896167977822
Si	-0.11719476428299198	13.625272595119679	2.8252193175597595	14	0.7271409804649106	0.5409860133018253	-1.0255275230683119
Si	1.332286070336892	14.874407582700599	4.194262813965444	14	-0.28883565767064706	1.1915689904224107	-1.837724267071169
Si	0.051496146424404	10.582189965754308	5.494877698003451	14	-0.9221940289199645	-0.721643700179902	-1.5336869491951466
Si	0.9028481840769599	12.064170735006192	6.908023605704759	14	2.611127145561504	1.2269527989488205	-0.5836149395098804
Si	2.490518740752108	13.542950260696824	5.482397723104763	14	1.1887178917328984	-1.4560943330699936	1.5270164735525542
Si	4.034168135968212	14.947386185916756	6.764942643487379	14	-1.138859531585651	-0.017288369283207698	0.35587594334084816
Si	2.7540444607156798	11.153896315865818	7.971063967582848	14	0.06316331595794979	-0.10665227689559448	1.8957728832157483
Si	4.08166679043288	12.468746171272644	9.729927929932057	14	-0.2116994127398205	-1.2443165016179085	-1.6588450137430386
Si	0.051138647143451996	13.604976385941995	8.353149449083956	14	-0.5138402833317018	-0.2626767179223965	-0.7152383054958171
Si	1.279262426984784	14.87221383711294	9.700304239514988	14	0.9518614989880889	0.552892802039431	0.05518466192846628
Si	0.207008333638524	10.613536152706871	10.639438600608575	14	0.8334165904311034	0.4170157994118414	0.7887876013945051
Si	1.303864877501208	12.304036502557667	12.37158761669028	14	-0.11115351097957774	-1.4866295511836682	0.08085920543440096
Si	2.648322173357784	13.668432508310975	11.084313955818708	14	0.3530119891247352	-0.07349735957122096	0.49226511014821134
Si	4.141076670940176	14.918022494976743	12.369361371167988	14	-1.2904871254044676	1.0241807781016183	0.00586906211430202
Si	2.74730072427954	10.83843570036031	13.724787394962863	14	0.9214720625460668	0.8648326692274607	-1.484942648983119
Si	4.1258667015324	12.289509031777165	15.140192048121095	14	0.1951191258617816	-1.108479094012249	-0.7706199140918067
Si	-0.05045614851618	13.584582676960416	13.904382033739296	14	1.2511949796809005	1.7050634600885528	-1.8515015349291826
Si	1.297689889921128	15.281388014129819	15.266730543610787	14	-0.26921349608834094	-1.6570161865288173	-1.1540627344542187
Si	5.51613265525278	0.275160696561828	0.117877262910264	14	0.5946077003061736	-1.8330656813415929	0.8964084136641993
Si	7.044994580211323	1.23995375604738	1.4784220264096801	14	-0.2270638239119614	2.264283238099804	-0.3649977107956695
Si	8.227423451960064	2.616537237287688	-0.18526587736971598	14	-0.35288626207457996	0.8228102667644286	0.6529360527095848
Si	9.341342461504548	4.2904626204761644	1.363567257420192	14	-0.06922701074498704	-0.8488761325000896	-0.7888727049806019
Si	8.445758012817839	-0.023026203686772	2.8119755941972198	14	-1.9449339596001716	-0.4576017253325068	-0.4372599113710914
Si	9.610084420976555	1.270877443849728	4.1368841793726485	14	-0.6422371692513846	2.0793868269909312	1.1910149172259188
Si	5.584642517457036	2.918916629103816	2.624028472220364	14	1.0922644183107355	-1.5974637308824837	0.8867911942141854
Si	6.913678594330728	4.2700851614619	4.041984370247207	14	0.45776139097288815	-0.16627955170674463	-0.2660402379022142
Si	5.2901768597237995	-0.061311126683268	5.191880807429316	14	0.7244091810622533	0.6089896921354858	-0.22420963989606502
Si	6.736765200161436	1.366996000523868	6.596479232322408	14	-0.7642898527936022	-0.8465891343178181	1.211697402642254
Si	8.125731156496535	2.7427019835291118	5.501572684537644	14	0.816187099459727	0.8372588502215328	-1.2979618427912023
Si	9.347533699051944	4.202989046414135	6.932187307103652	14	0.7714308407097814	-1.536853522507441	-1.0995172493083412
Si	8.055775047201156	0.137702223035784	8.24336466989706	14	0.6994563468196842	-0.21193389754501804	-0.9680923726531198
Si	9.603974433265739	1.23345376912098	9.67466179109034	14	0.3145060874080695	0.6732043330588442	-0.38306589632247806
Si	5.366844205520688	2.691498336516396	8.075860006803731	14	-2.4263626321555547	-2.02186245922113	-2.5638077519179028
Si	7.170606827564004	4.69599680481426	8.982461933330688	14	1.2663537024274298	8.494391531430958	-3.986312136643354
Si	5.3315330265430205	0.004826240292852	10.910748054916512	14	1.674894881593531	-0.5279674786237876	0.7390261719178272
Si	6.748838925877224	1.40960341482642	12.272430316128048	14	1.4041538918344902	-1.864358604193115	-0.8620011109383817
Si	8.071651265268887	2.66881338214326	10.748492131266252	14	5.621445645792391	-6.244509054229304	4.361965279217313
Si	9.182710280565756	4.067269319390904	12.255936599302307	14	1.3406671308272657	0.2640162637941936	-1.3429109344401589
Si	8.209223488566144	0.0025349949012959997	13.713298668070452	14	-2.2057664236764256	-1.0651469704991336	-2.278260795062257
Si	9.698662992816072	1.123408990457028	14.736461610155075	14	0.4146745509073145	3.122172123189141	1.0958282273949926
Si	5.5568225734120436	2.582412305924088	13.683431228143643	14	-1.1904184207916444	0.2139493870054821	0.3356588279874598
Si	6.667946588578175	4.156335390249899	14.813567705069495	14	0.759514024661427	0.13576387399350312	1.7254957769572377
Si	5.11597721009628	5.385450418097508	-0.011017477840247999	14	1.8582388593100985	0.4309357636151231	0.06410408339459198
Si	6.581870511705324	6.906236109299999	1.398748436659332	14	-0.24467923779189193	-0.298627712282431	-0.7182686102261436
Si	8.016905125381284	8.087884982617572	-0.081851085370692	14	0.06567862829265066	0.13781150227046907	-0.20877966553826038
Si	9.311377521773844	9.509269623748091	1.31933484638604	14	-0.47956462119827586	0.19141313465332016	0.1940726859964813
Si	8.223117210621323	5.888468156364288	2.697072075305784	14	-0.9065676221157004	-1.999686418724321	0.10515306538341614
Si	9.712329215328827	6.872891176367568	4.128417946401012	14	0.14219755083610966	0.4748816099681581	-0.4838511679880267
Si	5.352901733563559	8.338329478891763	2.8108380964851	14	1.601133212395399	-1.1358413110503291	1.1687869404016424
Si	7.002907164862884	9.323889996607164	4.3070050872038514	14	-0.8120368212519441	0.3178364401292573	-0.47804149840662
Si	5.562380062234116	5.579328778144704	5.3778941832955685	14	-0.18194478220134286	-0.31394687200093735	0.9537859713202198
Si	6.901783618255416	6.562581800501231	7.106939455619916	14	-1.5305980232635203	0.3608474325878865	-0.49176940104248673
Si	8.39205187083846	7.855754199508511	5.697661040139816	14	-0.5787236687488307	1.5542609339669713	0.5914141303880177
Si	9.663595563348144	9.591169459020731	6.975330970327632	14	-0.8023316699999811	-0.8345010826551418	-1.2887104916282452
Si	9.311182522166051	6.618806687414592	9.278390088122364	14	1.253733431963483	2.0474629548938448	1.101424752345359
Si	8.266390873583832	8.110472437186813	10.803092021448013	14	-1.2557664049401243	-0.07246171834826533	-0.5485352927428441
Si	5.325114289453199	8.11222743365694	8.1420461236818	14	0.14340956988402748	0.2796562974566544	-1.0283719368839916
Si	6.623827927315236	9.39475610407224	9.543215805471215	14	1.4167456230293833	-0.7151866262788822	-0.13746028928373683
Si	5.547397592368764	5.247731945094408	10.811802003929389	14	-2.938649196542291	-3.7292332292239836	10.025088799359835
Si	6.805827561254436	6.78371135573736	12.188092985758008	14	-0.1934368516508087	0.3473758691524386	-0.8508533124912836
Si	9.63956186168778	9.713645462681423	11.787287541908869	14	0.44657554016705187	-0.15706316757614183	1.541925799083029
Si	8.08955872925112	5.5632088105672315	13.606048883784851	14	-0.4660488347513214	-0.8128060959637323	0.08562397781369939
Si	9.55108078965216	6.7547051640783	14.85380262414391	14	0.33631805939154574	1.4386128737772428	0.537960079450543
Si	5.282506875150648	8.100706206829896	13.35609188653014	14	1.593217807556791	-0.7786258218376838	2.058096275166381
Si	6.905001111783984	9.46649970977238	14.557776969548339	14	-0.33046853767767687	-0.38845313329978437	0.7391860946687403
Si	5.797452089427372	10.819325738796696	-0.061619876062272	14	-1.3645244170929198	-0.023983527536873293	-0.4921774354567942
Si	6.88251115701864	12.172509267101963	1.449887083802784	14	-1.0908994184962688	0.6704319101921286	-0.5920008566220755
Si	8.135903636036351	13.651077543217488	0.18979961825088	14	0.6051857418143268	0.6753368078113751	0.42960675927513853
Si	9.74161165643226	15.037524754618607	1.4584508165783159	14	0.2628160718307485	-1.3094150885503337	-1.0627527572250117
Si	8.029775099495556	10.915476795405468	2.8301755575911396	14	1.8078781051832942	-1.2091250117694456	1.1811171901854767
Si	9.454230984448799	12.370661368553266	4.17022911230508	14	0.5643776723940005	-1.192530069591082	-0.9936525019723079
Si	5.435094068247888	13.5049415871447	2.7125420441906156	14	-0.09680545774049137	-0.43584297522915777	-0.6889425829445346
Si	6.923818573935912	14.782319017920829	3.804864847172136	14	-0.1690000382459933	1.1046270640216034	2.1248848496257398
Si	5.372612943917868	10.707087214545083	5.344240500984132	14	1.7062412834357124	1.8471699937963293	-0.42040811577124476
Si	6.79021134266376	12.2634440842023	6.808882555109844	14	0.009695123941214375	-1.2687790260759255	-0.34956850776946086
Si	8.205518496018096	13.668091258997338	5.4798952281380995	14	-1.3858381088653513	0.061594684602127456	0.623211504103353
Si	9.507173377964326	14.932306216247508	6.92232357694284	14	-0.6797598802936258	0.9755845735560312	-0.3118509069439526
Si	8.054913798933407	10.703625971506776	8.254008398489038	14	0.22491515119591365	1.2665516775370813	-0.4623811530121301
Si	9.440694761674571	12.191602978698263	9.579908231670744	14	-0.9303578025324987	0.4199172917656285	-1.023064661282142
Si	5.384134170744912	13.592788910454995	8.098187461895915	14	-0.2646610970084867	-0.09252688137723294	0.10626969642395645
Si	6.718353987192408	14.914220002624798	9.404879833710108	14	-0.08055144412757924	0.5302825018540489	0.995546121040597
Si	5.469267749513436	10.850281926533677	10.778327071258428	14	-0.9715723637039404	1.1045887545523332	1.5821787668647354
Si	6.63900539678838	12.2106316904253	12.425115009029183	14	0.7867191471644459	0.029891413341509555	-1.2716216401178813
Si	8.009803889664193	13.552570241347896	10.840613195980657	14	-1.302806576545957	-1.169439486931896	-0.36658922498884117
Si	9.2169814616352	14.787697757102423	12.187247987457576	14	2.3435830681575354	1.5391711168430222	0.8934238746085715
Si	8.349330706764695	10.911024304360883	13.41532301739696	14	-0.4583738282601474	0.24628463595379238	-0.006033869965323512
Si	9.415344812661612	12.34339392339702	15.04327724304847	14	0.17806318449951528	-0.3362738363800392	-0.9992888790551365
Si	5.380396678262232	13.680538733961395	13.755304833582311	14	1.0458793643404758	-0.5727584472955551	0.6073904646263537
Si	6.822565027589915	15.057674714090448	15.133464561652271	14	-0.5233860260538157	-0.5115568846968784	-0.6362403232026713
Si	10.982410410780073	0.197713352333772	0.045272408942376	14	0.9159310734706156	-0.5122351422803334	0.9108359140576783
Si	12.216709178201484	1.787203905348312	1.402762178586384	14	0.29705393871596836	-2.089999578420906	-0.15723234630620755
Si	13.565033966279268	2.718262032685848	-0.238403270493036	14	0.7746611774340155	-1.4123356631842654	0.3562860346394117
Si	14.684331715005348	4.053700596682043	1.1844926175978718	14	1.5201207690839171	0.4583550591913103	1.3302569824965182
Si	13.589018918037684	0.11384727101589599	2.7095195502698397	14	-0.17307292618363987	0.8982344126625684	-0.7489087294368802
Si	15.021372287106503	1.3010048832535919	4.1030029975187885	14	0.02617848014868371	-0.17560700758717782	0.21123764222432193
Si	10.567743744810384	2.75388196104252	2.672209625312304	14	0.7913841606573226	1.1175196145389539	0.0917393518176716
Si	12.072051969154453	4.052774348545032	3.97685450124468	14	0.58423123345512	-0.8057499545231179	0.650265959834611
Si	10.822283232848209	0.09814980258864	5.596033744545552	14	1.441622352554476	-1.2382240104512858	0.15116145242427392
Si	12.092201928626292	1.4423958488701079	6.986137198592772	14	0.655751670145679	0.7993435313969051	-0.3518609052729049
Si	13.57798519023012	2.590049790562608	5.3864579160711	14	-1.2596865692217538	0.5531589114400663	0.10342476838721261
Si	14.992203595774283	3.82816730030328	6.774660123942348	14	-1.4275820606222114	-0.016590828409851523	1.0007294693660156
Si	13.68117248268672	0.20400208968506398	8.260150886134488	14	-0.15583263656991894	-0.9570839281143739	-1.0432833192987223
Si	14.984956110351348	1.477577028109248	9.62810563473	14	-0.770694990367155	0.6893241349740447	-0.36065871345738765
Si	10.75333462152642	2.9507828150104918	8.355424444508195	14	0.35583069188721356	-0.6412611776718564	-0.34324975933466495
Si	12.242985375351456	4.4801159890212	9.389686114269647	14	0.31694426658316593	-1.3163226201034437	-0.07451988815704387
Si	11.098516427252891	-0.15715343391303602	11.10620266179336	14	-1.940407785794583	-1.5330066347274351	-1.7809339498702703
Si	12.43471873971294	1.2522387313382761	12.128406855806338	14	-1.3397189071851952	2.2900320865494908	0.6375986381433055
Si	13.342864413134915	2.7850493983546083	10.726587175324283	14	1.4582268078225245	1.164593724735013	-0.09130072125005434
Si	14.876146329203412	3.9911057225808118	12.215522930587415	14	-0.3938671097724202	-0.22036635166350768	-0.2664971233176045
Si	13.770303553414978	0.152132194012392	13.489162868880863	14	0.6915939067506713	-1.532779091906602	1.8136538361744747
Si	15.366749092440768	1.0708728461244	15.202835672124275	14	-4.504733358323963	2.736776548336077	-3.4877969265723947
Si	10.749499629239844	2.689710840111636	13.334121930718908	14	1.0708124010720799	-0.3986447376783193	0.40511158177955586
Si	12.141683079103512	3.9974432098340515	14.842590146695871	14	-0.8107556394709143	0.6420937015745205	-0.943889529832438
Si	10.895733085116527	5.46031401752232	0.024082451562312	14	0.2916271067167318	-0.4411019140509886	0.06075984670467537
Si	12.32080646882778	6.766307640741924	1.4020634299917958	14	-2.1598541959745416	2.232629074950801	-1.7608464182250172
Si	13.52923528828212	8.200107256901868	-0.015811218198468	14	0.39823464637975575	-0.8284780113321629	-1.0775841782642859
Si	15.012824804298289	9.466402209968484	1.2083150696831277	14	0.4119787469791393	-0.5758589432011217	0.6128746322742296
Si	13.444962957781344	5.552922581256204	2.74762572362586	14	-0.7467474583047637	-3.9610654250626913	-1.2337425738782675
Si	14.76767779736911	6.493113190225332	4.03909187606496	14	2.2521933866634036	3.3401391193678864	2.9013591705315234
Si	10.80674826409411	8.287759580604373	2.5666823375622	14	1.2650486093669226	-0.3703330114455088	1.076593788494965
Si	12.24004413126726	9.746779146038747	4.004284446074088	14	0.2785275822211094	-1.6855305158608556	-0.9902445018704518
Si	10.833674459936724	5.372824193492976	5.45966401882968	14	-1.1365825607141278	-1.6483438482839579	-0.979990162522105
Si	12.240889129567693	6.571356782851871	6.562663050337812	14	0.8475980360454441	2.694486750919749	1.1368990637790382
Si	13.408221781679869	8.30072705452254	5.469088999872961	14	-0.03405146174950914	-1.9898156882897404	-1.5212913933361805
Si	14.959183662188172	9.060608026153332	6.894796132309536	14	0.6543270206877849	1.4863757830885695	-1.2965186813750031
Si	13.817477208533326	5.632368671464128	7.896492867569724	14	0.24791677361102243	-1.4123809146379	1.3464516035765348
Si	15.148105782203988	6.761968899468552	9.5943869525493	14	-2.096092583808593	1.1548824028302818	-1.7812337407505996
Si	10.947391731214092	8.000037659307276	7.984388940781968	14	0.4367063523956634	-0.2035176413900453	1.3735389694558908
Si	12.484622389340377	9.370478652902136	9.527729586619069	14	-1.0401136606600438	1.0100558968043207	-1.1531361080968372
Si	10.665731047725863	5.46738275330478	10.754683368813646	14	-0.0010533818496646682	-0.35031618519655994	1.1803800542901903
Si	12.145404321618877	6.701324021445239	12.17788800628356	14	-0.6086212527431086	0.5975433883607186	0.9405116116628275
Si	13.600458895028147	7.960176489481128	10.927599271023203	14	1.13360059276382	0.5989873211085137	0.20542463020599913
Si	15.148008282400092	9.397047349463797	12.202490456799984	14	-1.3608793610805459	0.05859317625138658	-1.1556527059841981
Si	13.589668916730323	5.386831665319368	13.598687648590705	14	-0.977314413215427	-0.46412281975599845	-0.848394821584158
Si	15.025174779458448	6.612826699442303	14.840445151010158	14	-0.5494503491262848	1.05369475318213	1.7714414290282836
Si	10.787703302399759	8.406270592239961	13.526732793315457	14	-0.15717629621022833	-1.5587871077725601	-1.211886893104349
Si	12.12475061316024	9.639984360837994	14.888772553807943	14	0.3302541074939765	-0.008080984021225413	0.930191966239349
Si	10.655119819068515	10.945977984057599	0.10786728304360799	14	1.1736486434515105	-0.3317463770217905	-0.283799890790605
Si	12.17146926919374	12.164238033738119	1.432158369461028	14	-0.21148832499303635	0.4978109843237707	0.43172689272213266
Si	13.286753275992767	13.614450116887223	-0.04029991894368	14	1.3909620646578744	-0.23970209211314933	0.35903634600037415
Si	14.841241399408643	15.005268569496346	1.29504114524862	14	-0.2811411107790399	-0.8093235338075919	-0.12874732757481902
Si	13.73625987188796	10.771745834495446	2.55433236240204	14	-0.675213137645476	1.1725680078854523	0.6945450214371373
Si	15.000962328157607	12.089016935032355	4.062345579294155	14	-0.9580702041151826	-0.3861231976586662	1.1820381601111538
Si	10.989170397183528	13.679108736837588	2.95091281474902	14	0.16497085909878928	-0.47745631483575435	-0.8109204473219358
Si	12.440227478633062	15.060290958828324	4.180499091648792	14	-1.2403770540463777	-0.3683612307754872	0.9178822852980761
Si	10.775548326847392	10.809283258995407	5.2944668510952235	14	-0.3026952008989053	1.5214145492810156	1.6611183850671138
Si	12.036627040405572	12.201726708336132	6.92224232710626	14	1.6912000602023143	-1.3719027180301486	-1.7698098055921174
Si	13.564253967848101	13.513765319397287	5.5470725930224445	14	1.033289947140371	0.15186027885029016	0.2624895414550897
Si	15.19315069160394	15.024671030471652	6.960446000266176	14	-2.593983529507821	-0.5762713484944735	-0.23335454729876773
Si	13.814340964841339	10.708809711080578	7.9219890662885275	14	-2.0443146364293234	0.3687867487059717	0.834833526573037
Si	15.062533454317931	11.995937122246307	9.34763119885584	14	0.14948277776074925	-1.0897840730083883	0.5863135716539079
Si	10.780472066944139	13.540919014782322	8.193786019615944	14	0.2678934906169769	0.7139797494416046	1.2263599020619944
Si	12.487791132966995	14.853493874764906	9.424721043802945	14	-1.5001425094147705	-0.45490746406752375	0.8383117178501334
Si	11.120291383456332	11.197348728468803	10.652731073873063	14	0.7887852873997169	-1.970806221105226	0.7520848158388592
Si	12.111799389209388	12.287315286189504	12.486133636300764	14	0.7119066672219693	-0.16052927465823344	-1.4989230341614241
Si	13.868989604925046	13.349331900126684	10.71815344228728	14	-1.3891581771652586	1.0305272944738717	1.3529518720469333
Si	15.0958133873811	14.927252476412232	12.176409259257802	14	-0.7462898015577775	-0.8868181908200471	1.1632233255993742
Si	13.579837686504144	10.745095888097207	13.39975554870823	14	0.3813311715629742	0.3795365400495108	0.6478941151767745
Si	14.730400372346207	12.246544118193661	14.843028895813402	14	-0.8818652135313138	-0.8972869603520939	1.418075141590432
Si	10.736320905746568	13.736503621397699	13.650996293380908	14	-0.9731517937021072	-0.8458795092494571	-0.38400589242752425
Si	12.139911832666067	15.03130101713658	14.814818952552828	14	1.1462316618701114	1.4140631888488728	0.20478545342341034
H	5.8549525987750375	5.720248494709056	9.757045875388997	1	2.2166851366394984	4.239398631721598	-9.731209147272121
H	7.183211927211025	3.525139534791243	10.399837707524352	1	-4.762443986320494	3.2075402760234852	3.8733177142545494
H	6.241685570928522	3.5587477171941946	8.849156951450613	1	-1.327945815924237	-0.8476414877253546	0.3020552527847204
H	16.14017928681964	0.2447017578247176	16.106270480021344	1	-15.967369822526905	2.095912606436183	-1.8094030277486737
H	0.433199753693586	0.1302223630802292	-0.0345100555889892	1	16.21669067675326	-3.05767131824365	4.293496487431238
H	8.355962318426355	5.767708149252165	8.403181473453188	1	0.6501271201473231	2.568980558711509	1.7653273405769716
H	8.423255058078643	5.167055732360663	7.7128991118368235	1	0.7842316027672027	-1.7745509238024708	-2.802952428397644
H	7.114375440663717	3.538584757748502	9.637398991038019	1	0.445572037760598	-4.352698244311903	-1.7726971568666439
H	14.818338695473473	14.229633254552693	9.794773424506554	1	0.19232844814729286	0.5381053469011314	-0.056448874414383086
H	2.1502265501910203	14.390434806128171	14.314422334014118	1	0.5346214991923308	-0.7491015623358914	-0.699418294460946
