223
config_type=divacancy dft_energy=-23021.883216684568 dft_virial="-84.4502650392928 -3.565546529533939 -1.414399120555452 -3.5655465295339384 -76.95670758164245 -18.89542669132019 -1.414399120555452 -18.89542669132019 -74.14366866220905" pbc="T T T" Lattice="16.249967316 0.0 0.0 0.0 16.249967316 0.0 0.0 0.0 16.249967316" Properties=species:S:1:pos:R:3:Z:I:1:dft_force:R:3
Si	1.083499070728932	1.1975900912545678	1.428973375867092	14	3.523276894437778	0.8063037706090779	0.19616736550080596
Si	2.698372072691064	2.4807850103298237	0.007377485161463999	14	-0.4365518289659225	0.5937849466037262	-0.569212893059071
Si	4.179459093740568	3.87537345535626	1.315694853707256	14	-0.8589916321611483	-0.35852778136804886	-0.5797598241928504
Si	2.861261745066648	0.130535987449428	2.647135925743716	14	-0.11924246542729561	-0.17394787332408626	-0.3284301653798634
Si	4.003439447773656	1.344018546739044	4.307118836975064	14	1.2503439438199317	0.6588318543192165	-2.1690243002093816
Si	0.20604958556688	2.807783102629692	2.6700808795939075	14	-0.7004369663887886	0.6636218235306524	1.5622550146283756
Si	1.6098192621268559	4.24278521637102	4.1272641987215755	14	-1.1515211968452521	-0.03723551857798052	-1.3976471956007914
Si	0.313673119100748	-0.14182971473404798	5.402106634596408	14	-1.7624808698770356	1.940828675735491	0.964432661340421
Si	1.539716903125632	1.3762097319920399	6.755322662836308	14	-0.4432870964625825	0.6891971223712293	-0.04946986613337315
Si	2.94384407896656	2.9836889988253916	5.446517795271036	14	-0.7716578693095505	-1.209723565087976	1.5055482583503819
Si	4.209326533667376	4.135226682706415	6.996439677871116	14	0.49713555495616774	1.031189868314874	-1.1441801769351652
Si	2.7936781309994037	0.03461243038308	8.190406026414216	14	-0.23211373187126422	-0.9056137420419256	-1.6822484999196865
Si	4.126662949930884	1.2556837244092678	9.437444768211373	14	-0.4224570296008708	2.910593038178303	-0.1405417590099343
Si	0.03648117662442	2.6367034467268438	8.178299800763796	14	-0.20205468246288102	-0.410861087496471	-0.1415558029482007
Si	1.3077323697224161	4.20516654203448	9.315391263700896	14	-0.08213498789425845	-1.831126296598605	1.7858342194999406
Si	0.025301199111011998	-0.09203981487782399	10.793602040535468	14	-0.8065737366676935	2.3260951811014836	-0.8372074281151297
Si	1.2255237850707719	1.38157222120632	12.07790195738821	14	0.8679154245063183	0.0016347087625501486	0.07821148117571247
Si	2.6841696012568796	2.6677408843004042	10.742333393653487	14	0.16139702270378345	0.7183691404441613	-0.005994017832861217
Si	4.257962685844164	3.9734582580756355	12.068801975691253	14	-1.4496475435902543	0.6813843046348952	-0.4302328234205946
Si	2.593299784025808	0.049724899986959996	13.444962957781344	14	0.6383041494431543	-0.2191617888210183	-0.8768083635876466
Si	4.088378026934388	1.217317551576192	14.813860204481184	14	-0.1465074946842739	0.7527401905849649	0.17671849641707785
Si	-0.06491861942742	2.58025106027106	13.541406513801803	14	0.6553426072892434	0.8828028956415717	0.9238004555239928
Si	1.5771405778543799	4.135275432608364	14.728515376137551	14	-0.5241843542557216	-0.35252682155082327	0.411991088284676
Si	0.046133657210123996	5.614916206566744	-0.158957180285112	14	0.6235146374205984	-1.7830664246228012	0.5301686018883663
Si	1.5010257309462358	6.813237546350532	1.279636176233052	14	-1.6724322769178932	1.1642918769704276	-0.7981711073709176
Si	2.7131432929813077	8.39237687018478	-0.123467251666968	14	0.07621630344727758	-1.7102504079614191	0.2574170077689696
Si	4.1878278269083085	9.28815631847928	1.395644692901976	14	-0.24698217682714854	1.4002401553161608	0.3416446182832965
Si	2.75469445940832	5.319004301742384	2.354441514447924	14	-0.08874401411969908	-0.5330317847728832	1.1871569736930365
Si	4.008996936595728	6.683904056482488	3.64763016342252	14	0.694835813448846	0.7970997277840118	1.9142470462726082
Si	-0.245910755393028	7.833459244350959	2.7616331954522515	14	1.7686067854128202	-0.03679457401557513	0.07691564409435783
Si	1.013087962348704	9.272913849136872	4.158155386589291	14	1.6754751800642884	-0.7594967982557821	-0.5976413474734162
Si	-0.0058337382664439994	5.45820152177124	5.361319216633248	14	0.8958106316772648	-0.5754172273071203	0.6846519223862716
Si	1.331132322657456	6.792372588316788	6.724935223955388	14	0.7910838555559293	1.0953232623101155	0.8522383669272474
Si	2.829899308146768	8.05259005360722	5.278980632243076	14	-1.3572656725530776	-0.57034340806834	-0.43834286093193775
Si	3.979633245655716	9.432569778016571	6.724951473922704	14	0.1108004982191214	-0.37656202830463154	0.7244624029423803
Si	2.744911979084088	5.45909526997362	8.238733429212	14	0.027687204750546604	1.3732345505859853	-1.5316999990037359
Si	3.825713555238564	6.987940944964848	9.635710619433889	14	0.7754073121979225	-0.21816471417786487	-1.0218914659245584
Si	0.182210883514308	8.544817813576175	8.253455899600295	14	-0.4864251015240269	-2.195456805563696	-0.470313527145851
Si	1.4988482353258918	9.800989037004923	9.724207941436823	14	-1.8831351292356244	0.4298471576225724	-0.11293065897686408
Si	0.008238733429211999	5.53222012289562	10.687473503994672	14	0.3719972879192406	0.7080533516786633	1.5757625735383058
Si	1.562255607792924	7.043418333381672	12.27262531573584	14	0.13604900957350752	-1.0897835587873246	-0.9860026923132713
Si	2.924197868481516	8.58578398117981	10.965689194411908	14	-1.9573002048584878	-2.085756483311066	0.0847508304469771
Si	4.260838930059096	9.53028083148768	12.36484388025414	14	1.7012600239884574	1.4469178010718533	0.9369951109164608
Si	3.159058646099664	5.639274907573427	13.430955485954952	14	-1.9021314837830068	-1.4642087414603808	-0.751526628873855
Si	4.289373872665991	6.7827363576984	14.97889487254248	14	-0.23605832165343546	1.5840471891008867	0.9206009720636007
Si	0.088919821153152	8.0957337168312	13.684812475365504	14	-0.700253132358398	0.9033226300911416	-0.3363023756490928
Si	1.0931840512492679	9.745657898293944	15.055139719189151	14	0.7245685895921026	-1.9249924667371028	-0.8025455859626174
Si	-0.148979700353088	10.980297915028991	0.15193719440460002	14	-0.34069870863601404	0.866244977379818	0.09280147542542476
Si	1.536970658649228	12.111035640745534	1.310202364754448	14	-0.8826211184954372	0.48552084378293087	0.966274086970711
Si	2.7427182334964275	13.598476399015595	-0.038821171917924	14	0.4269130122312194	-1.065643450936454	1.498256089441378
Si	4.215144021966504	14.815891450395684	1.2861686630940838	14	-2.2495001538405486	0.04469300955907003	1.6356472159920028
Si	2.61713848607838	10.481407668460475	2.85861300039414	14	0.5293862145394452	1.3476764781510535	-0.6232755246258246
Si	3.967397020266768	12.260567839987367	4.01837316773706	14	-0.3011288835378711	-1.8520548367940786	0.851396329934899
Si	0.126050996470212	13.687526219907276	2.6361509478381002	14	1.2584097583197682	0.21744377624609534	-0.1325361083745892
Si	1.7518764764033279	15.04116474729739	4.134040435092348	14	-0.7688929026482633	-1.7257544301524441	-1.3681463331574124
Si	-0.031606186429619994	10.821015735397559	5.39913289057758	14	-1.9627463201476254	0.13994757657044807	-0.35455825186427226
Si	1.349787285136224	12.118916874893795	6.530991864038928	14	0.9772853597253093	1.1534148159135411	1.742326746603991
Si	2.917015382927844	13.649306296780043	5.555863825340399	14	-0.21513646633179445	-0.39101266864599177	-0.09271405784453973
Si	4.372004956467851	15.028928521908442	6.827066268536448	14	-1.1936328166628938	-0.8859959513386637	1.0377109627383654
Si	2.562928595112204	10.752229623748931	8.02090261734102	14	1.025340346601005	1.0267351712371853	-0.783108029742298
Si	3.926788351944084	12.137376837764773	9.378327387115764	14	0.49971103115536014	1.085263298523972	0.1199770302172619
Si	0.027641194404515998	13.35937437992797	8.113056181990055	14	0.38536137915230634	-0.4662151852655349	0.6186362221861494
Si	1.285144915153176	14.944087442551607	9.406277330899282	14	-0.07344156658577376	-0.6776178924514104	-1.3560791074478293
Si	-0.065747367760536	11.247788627017668	10.921213033868016	14	-0.3312676372111789	-2.131017192924825	-0.607863033784197
Si	1.5111657105514198	12.187979235986795	12.200264211277691	14	0.14912025191060835	0.5996465525125998	1.255938411886042
Si	2.550464870180832	13.673404998309671	10.742333393653487	14	0.983635989866075	-1.7754531246593108	-0.45377617772665857
Si	4.045445613285516	14.919744991512239	11.834786196373537	14	0.3483102088257804	0.21209176341167513	2.3956772614911834
Si	2.6865258465177	10.656419816453795	13.740419863520856	14	0.14614574016572904	1.1407480084432997	-1.3293822924666037
Si	3.932264590929576	12.147939316520171	14.980666118979922	14	1.5781925251763778	0.07750057055469153	-1.26871320577973
Si	-0.034579930448448	13.612467620874671	13.375721847047869	14	-15.956719790069787	-17.861073480181	-3.2221955763483296
Si	0.9099819197286839	15.18977069840221	14.810610211017984	14	-6.628075801868146	6.934661856448032	-3.480038616268848
Si	5.34323300301054	-0.169340909400036	-0.013812472218599998	14	1.8422674101718708	2.3289197974061984	-1.1225682369455967
Si	6.7007065226872315	1.3839772163690878	1.3315223218730399	14	0.937100526234587	-1.2064569757787282	-0.49034937957416896
Si	8.112113683885728	2.7824819035186796	0.039812419924199996	14	0.2238548273618846	0.524868782491945	0.12899826745406545
Si	9.69464925088902	4.054058095962996	1.4596533141597	14	-0.8717337730172702	0.10816691503969371	-1.8511755187745875
Si	8.266975872407208	0.017517464766648	2.6791321113889195	14	-1.405505007680228	1.3171350893846105	0.16640759275168798
Si	9.391766110086095	1.450992081580272	4.1904603216135	14	0.42512300870733233	0.40351029738616756	-0.37553101507125214
Si	5.572861291152935	2.784805648844868	2.701817065762056	14	-1.3098799443922167	-1.754555951948743	1.1808222844052558
Si	6.8316000094176115	3.9319558415505718	4.12513545300318	14	0.06788566509946578	1.814546781052162	0.25387710996418966
Si	5.54302635116076	-0.041859915806016	5.291606856847608	14	0.6116060489092685	1.0851810231537273	0.6619416062039355
Si	6.841447489611108	1.4457433421372041	6.743183937251255	14	-0.11853438302212681	-1.009370440125969	0.6310893708042866
Si	8.16999606746532	2.923401620083032	5.621562443198988	14	0.4973160465496421	-0.5145761336743283	0.2592936575421456
Si	9.376848640090008	4.245986459932272	7.230146707809828	14	0.4872722807270158	0.4020727924016728	-0.9710275464866007
Si	8.301230803509336	-0.095501057916132	8.02130886652392	14	-0.16274788143898922	1.8877330368796452	0.6778611190146964
Si	9.697070496019105	1.462188309060996	9.562927015825524	14	-1.2671340328920948	-0.8996027549139513	0.04174395175686018
Si	5.59226375212824	2.8198405783781637	8.27180211270006	14	0.49626266469997754	-0.6510426907518277	0.09729782440929972
Si	7.078339513143756	4.226876498368656	9.640293110217	14	-1.437557692153854	1.2336816386821798	-0.946321281244234
Si	5.453229031772544	0.142008464374524	10.723190932155239	14	1.6892203091058	-1.7331576708112786	0.7629991579228879
Si	6.716875240166652	1.513326956204448	12.069305724678049	14	0.30442555477936495	0.15854361001948308	1.5628887920897923
Si	8.246907162771949	2.835895546086372	10.924186777886844	14	1.0787866842225193	-0.5873147600655736	0.5239053893284856
Si	9.716960456013888	4.16372912537868	12.357823894373627	14	-0.05648358433620509	-1.2476936484559231	-1.867031268173409
Si	8.045878817105711	0.08917982063020799	13.46090417571834	14	-0.011334203582808776	-0.18447732094168867	0.9220798718437498
Si	9.53718706759698	1.407263419532916	14.991309847571904	14	-2.3234286877739585	0.4152057412664572	-1.1271016098460815
Si	5.461549015038336	2.914415388157284	13.662046271155788	14	0.7978769729222925	-1.0419370885530927	0.32916781549621393
Si	6.8148300431474995	4.450589798408028	15.06079470781512	14	0.9136494746095163	-2.2667941795554607	-1.232532868825138
Si	5.468390251278372	5.470258997519712	0.286958172833244	14	-0.21354263814383467	0.9927575002103645	-0.4957407303199875
Si	7.01080464897846	6.713982745984404	1.5204444418888559	14	-0.11671764000291017	0.6695307377774167	0.11370276190450454
Si	8.31778952020434	8.236019684670227	0.16795966217817598	14	-0.9982889761961309	-0.6720249670484922	-1.0966720641610652
Si	9.606509428167035	9.741676656301525	1.260054965617272	14	0.05153086415800385	-0.931787594201033	1.8440363306321326
Si	8.296437063151116	5.228719483334688	2.8094243493286077	14	-1.297260188149334	0.11843565257783314	-0.4772300575675814
Si	9.42368104589472	6.745296433002336	3.976025752911564	14	0.13939144648970003	-0.655490702955684	1.7677812034945204
Si	5.613404959606355	8.145669866393266	2.813941840242456	14	0.039524830755040374	-0.8626161193309612	-0.5571186707436264
Si	6.7956875816492515	9.437802267492323	4.307996335210128	14	-0.7253257801088859	0.8035334046266184	0.07406943050495392
Si	5.376577935942972	5.4946339484937115	5.2053520303342795	14	-0.1889536153040665	-0.5754673638608632	0.7786854714811112
Si	6.674804074785528	6.8053075623003245	6.69726152961624	14	-0.4108916836497807	1.2153162333803624	-0.399784765777273
Si	8.296843312334016	8.110098687938544	5.423881590799848	14	-1.6142913580923206	-0.7570352220222724	0.43950422920504867
Si	9.409673574068327	9.47462469343038	6.803016316908768	14	0.8632653234242984	0.49998176854557175	1.0339262957071074
Si	8.868435912674315	6.04693783762992	9.031650584396221	14	-3.752079813988287	-4.132777208089845	1.2643824359784723
Si	7.955073999743903	7.912287835800876	10.744494639306517	14	-0.5155516110327925	0.28914290475640475	-0.771702092321057
Si	5.316713056350828	8.187481032297336	8.239594677479747	14	0.5217302342276403	-0.0771285316148661	-1.006342963611495
Si	6.6974565292240325	9.724451690946564	9.425809791613116	14	0.8638016559940814	-2.802177754364683	-0.03380514985983896
Si	5.295181849657127	5.633359919470404	10.745404637476211	14	1.2360177449760668	-1.2680274919908463	0.8304263949437712
Si	6.64891787685114	6.740957691728964	12.329077702191624	14	0.5191460162703594	0.227369014113463	-0.975025101038367
Si	9.350409943266875	9.124307898032052	12.181641748733556	14	-0.45850829706839114	1.5349735302973484	-1.2120136485966322
Si	8.249555907444455	5.4169266047886	13.403623040929439	14	-1.3668607804973385	1.27993530917058	1.9743540893364981
Si	9.509692122898308	6.812603797625208	14.898668783903387	14	0.4656300016946692	0.01952034581162825	-0.31848050201195444
Si	5.705948523470976	8.281015844168232	13.781646030601548	14	-1.4610095151105207	-1.1941750627749126	-0.7676371748099029
Si	6.887321147344176	9.661726817106803	15.034827260044151	14	0.43996085750990693	-0.287167267428403	1.280475241287811
Si	5.4400828082139	10.909188058054177	0.166952164204584	14	-1.6473902253207149	-1.1796583450268245	-1.2829527583743057
Si	6.810556301743391	12.075415712388864	1.35614102235678	14	1.2696747991694652	1.7485202822096952	1.535883958691213
Si	8.187676031905129	13.517145312599014	0.01072497842856	14	0.6273473841213432	-0.37016460404703905	0.4806943648759489
Si	9.67656303726631	14.94403869264966	1.5492718839074398	14	-0.9876361155231614	-1.2574615346776976	-1.2600598937142393
Si	8.082181244089655	10.77319208158657	2.908451650152312	14	0.31691392754038816	0.23980905009446746	-1.318114166290523
Si	9.343536207092209	12.230619150223978	4.180206592237103	14	2.349782003084412	-2.052743491000365	-1.1284522114707556
Si	5.37451419009384	13.445174207356452	2.698437072560328	14	1.5119271706496693	0.06330704074534607	-0.211412734496624
Si	6.887028647932487	14.909816261482163	3.93314208916464	14	-0.3633406334168341	-0.8161115089633147	0.19257604558962313
Si	5.283108123941339	10.919718036874944	5.605686225131255	14	0.6152217943209928	-0.008474106024676053	-1.7238613253052195
Si	6.716160241604747	12.295830269063087	6.74146144071576	14	0.5917604582746415	-0.5996131281434379	1.4999905570903496
Si	8.145913615903007	13.496459104205748	5.425490337564131	14	-1.673018488930887	1.6670987760417781	0.4549964243116008
Si	9.531142079755426	14.677132979484359	6.798222576550548	14	0.6708692552070857	0.25656057258682824	0.5025508169814636
Si	8.205404746246883	10.938892998307823	8.248288409993808	14	-0.28045591121122043	0.32857748971470796	-1.701628720491367
Si	9.70911172180026	12.163523035176215	9.5281683357366	14	0.4296967479613437	-0.5253835177770387	-0.8177364475256483
Si	5.5588538193265435	13.607771380320347	8.294373317301984	14	-0.6873898924416971	-0.29075035980256136	-0.47820604914710957
Si	7.034302101717396	14.950506179641428	9.473747195195315	14	-0.8412808302738404	-0.12836551843477703	0.8414762342781714
Si	5.520016397441304	11.003356618650397	10.74808588208335	14	-1.9874793248853218	0.18520185842090642	1.4624418778843753
Si	6.854463713431224	12.226020409473552	12.138319335869099	14	1.1768090461110365	-0.3752772469761535	-0.04517663446978988
Si	8.36117693293806	13.437682972423776	10.732258413917569	14	-1.3277159591086158	1.5837435415625774	1.2827344715326252
Si	9.447389748208764	14.964318651860028	12.177758006545032	14	0.021398281137464403	-1.657494412118365	1.1833167707868633
Si	8.184994787297986	10.684418510139263	13.491096614991468	14	0.3182976964236919	1.280700213003324	-0.16736224415705897
Si	9.664538061452472	12.022115819592385	14.91368375370337	14	-2.1607425128626527	0.10111771558344372	0.2965302045622542
Si	5.309368071123996	13.401494295211045	13.32180445549338	14	-0.23321236517456354	1.2866065561447684	1.4353984779059938
Si	6.735822702057108	14.832287667417527	14.921174988636048	14	0.30713807089212114	-0.37460850248238303	-1.5340358481870906
Si	10.667469794228674	-0.033572432474856	-0.042363664792812	14	2.03761716418087	-0.30087794365862464	0.832020480242263
Si	12.121776869141412	1.230333775396308	1.4272671292989119	14	0.9855694610668264	-0.06400458161870225	-0.8475121611277512
Si	13.712144920391015	2.52613866910878	-0.033653682311436	14	-1.123012009723854	0.09243020781719537	1.0272483638590868
Si	14.99311359394398	3.987758229313716	1.26148496274108	14	17.060175201396998	-13.16625342043838	-19.26652166643365
Si	13.548702749126686	-0.14093596653166798	2.7919393844965916	14	-0.06272725649565268	0.9350729525791182	0.579299853451076
Si	15.1352195581224	1.45859706628416	4.125151702970496	14	0.031500411050858226	-1.6413949219351935	-0.7128335506898825
Si	10.887543101589264	2.6777183642324283	2.723722021704024	14	0.35192569712697264	-0.9190709072875806	1.4197329903008635
Si	12.16440053341128	4.016471921561088	4.1847728330529	14	0.5704501089391262	-1.256335904768537	0.21330995311236128
Si	10.632516114531958	-0.010741228395876	5.4923102031675235	14	2.025181499078909	-0.03143870452317467	-0.14435008021013762
Si	12.522306063546178	1.179812627010864	6.694629034911048	14	-1.8972502403327054	0.2969397816397538	0.4098493575529927
Si	13.888343315998403	2.7040108113497157	5.552175082759668	14	-2.3365045581006356	-0.2384934155021477	-1.225761605853996
Si	15.062549704285248	4.076694300434184	6.8071763085416634	14	0.4236315105111144	0.5452118820060207	0.8873866622063318
Si	13.67897873709906	-0.084272330500776	8.315319525172308	14	-0.8114706638604474	-0.1873921830431406	-0.5313608234253189
Si	14.652433029164039	1.4836382659181158	9.615804409471789	14	1.7162225713990593	0.6122845636032557	0.540441196084486
Si	10.871439383979107	2.6539121621144877	8.021942615249245	14	1.754549524185443	0.4779864767527689	0.09042037478843562
Si	12.085588191928679	4.329950041054044	9.424964793312684	14	0.5991441585330429	-1.8369642483385333	-0.5493279645130457
Si	10.861185654602712	0.064414870440624	11.097313929671508	14	0.04145495951887554	1.1890655051721823	-0.670648140149553
Si	12.352997654080776	1.3323673201734718	12.368922622050455	14	0.22520645742868645	0.5755218712936503	-0.21195420927704717
Si	13.382644333124484	3.0453576247896117	10.989804145908852	14	0.6603837734904578	-0.7172779633462906	-0.10984456126109034
Si	15.002636074791155	4.250243951369064	12.364258881430763	14	-0.55485404117764	-0.16804564395115432	-0.928714094901328
Si	13.700574943662025	-0.10879353118062	13.760374823384904	14	-0.5772265141209085	0.14082689458993872	-1.2316221833207412
Si	15.122398333910075	1.0257791868225	15.147910782596195	14	-0.3360156974058963	1.3154127059306433	-1.569276189036636
Si	10.8545719179051	2.61437599163466	13.58513517584916	14	1.4771894808902126	0.7108638269041172	0.7786841859284511
Si	12.400008809525962	4.053976846126416	14.897905035439535	14	-0.737009654015235	-1.478448036944425	-0.26679511442420967
Si	10.968321689117099	5.3537629818313075	-0.11277477317304	14	-0.3282306476070199	0.5264379280688314	1.1554503599955024
Si	12.243602874109463	6.7435251865648915	1.43072837233722	14	-0.7747089999929703	0.5128115840931107	-1.3976474527113234
Si	13.584290177548727	8.2927645705377	0.186907124068632	14	-0.5725216484955695	-1.022496447006389	-0.5689539827533321
Si	14.997793584530987	9.4436685056934	1.53554066152542	14	-0.8617722825648885	1.6040041085958763	-0.02217989715478942
Si	13.385683077012576	5.458347771477084	2.879234208918144	14	-0.8644297770237936	-0.2781861394345937	0.5544264663628994
Si	14.695625442289968	6.622072930845108	4.241956468037904	14	-0.2568097126923506	1.8735366788544476	0.3301026693906198
Si	10.64766108407047	7.984973939605344	2.659892150086776	14	2.1788906597649182	2.3378708434677624	-0.8335299761757219
Si	12.206861698007987	9.55485078206947	3.976870751211996	14	-0.4416297619732151	-0.6395303095703327	-0.46197363281888665
Si	10.670427288280187	5.335725518110548	5.402724133354416	14	0.40194577979885754	0.4803665489476299	0.7604393654661483
Si	12.117974376789467	6.772612628060532	6.6429216389115355	14	-1.238424299555725	-1.2863710428974426	1.5653619382972428
Si	13.283438282660303	8.378028149044752	5.6833610689017355	14	1.6173610007340453	-0.044017837301999145	-1.5410518803847104
Si	14.788250255991167	9.649051842600324	6.973445974118976	14	1.211875837351472	-0.008179457354987084	-0.6097183433832158
Si	13.610387625058223	5.455569027066049	8.026736355607463	14	-0.14767786182600529	0.9264322389296965	0.19142778995364498
Si	14.898571284099491	6.994587181597092	9.3945123545625	14	0.6902422766838695	-0.6275980668900575	-0.5485098388001746
Si	10.632061115447112	7.978392702842363	8.195687265791916	14	1.9655056303772083	1.226230832574923	-1.931046391323924
Si	12.109491893850516	9.372591148653214	9.423079797104029	14	-0.30162690663838376	-0.08617419435221108	1.5828673088694707
Si	10.642574844300563	5.55375132958932	10.666901045372615	14	-1.3486748383468667	-0.9125001905314102	-0.32120870186716355
Si	12.112189388424971	6.628475417967612	11.917336030338816	14	0.5343150234381691	0.8892982790118619	2.062407761677737
Si	13.53386652896718	8.045911317040344	10.89048434567346	14	0.009787426622207692	1.2425064434725241	-1.0159756096934298
Si	15.078344672516398	9.401759839985434	12.044524524521147	14	-0.030274250923679604	0.5635626320075137	1.0706887309061808
Si	13.472132903133696	5.575981284877607	13.59597390404893	14	0.47428717041813984	-0.2550389924583646	-0.9354570757139482
Si	14.779247774098105	6.899037373779012	14.98523235979572	14	0.12432682619788842	0.46322704666245884	-0.3228542092720583
Si	10.874851877115468	8.054231300306135	13.35032314813296	14	0.9282739216705185	-1.119639233764884	1.4953815936934522
Si	12.319343971769339	9.32881373670391	14.758399066031675	14	-0.018234278930490174	-0.32962778623798844	-0.004485550341530338
Si	11.12627137142862	10.72830967185978	-0.171063405935532	14	-0.041171623712595216	1.202550438355295	1.1471408047113159
Si	12.312145236248352	12.387203835280957	1.221152543862768	14	-0.9594017795604874	-1.9231754666073546	0.9816233286214631
Si	13.677207490661615	13.677483740105988	0.03664367629758	14	-0.11194412586552326	1.1132780620923055	-1.0592465408999259
Si	15.102849623228927	15.284768007331547	1.1718013931240758	14	-0.9254914714930542	-1.898895490627068	1.1700928047937458
Si	13.592983910062788	11.055632763505967	2.737615743759204	14	-0.28633062975722684	-1.0588022539006041	-0.6672272845210959
Si	15.018934792009103	12.335301439673652	3.966064522946856	14	-0.20856240713870786	0.6532008765575602	1.4954379008999636
Si	10.871991882867851	13.45286044189692	2.836334295203904	14	-0.14209290684957962	-0.810868768105001	-0.829103047035491
Si	12.0631632370326	14.710802911763112	4.253786444243952	14	0.9522651625233522	2.0289952196002847	0.07228379786011108
Si	10.923163029945936	10.743145892019287	5.461029016084224	14	-1.2651141725525863	0.7571771470359445	-0.16196909363751635
Si	12.291914026939931	12.124279364108075	6.718353987192408	14	0.967436740796482	0.556138051174522	0.30667141527651426
Si	13.684113726770915	13.78349852687557	5.607002472483852	14	-0.3912859771415236	-2.1671268244831126	-1.1501276577617319
Si	15.141995794493171	14.861830107998015	6.948144775007964	14	-0.2890984246343662	1.5606359896082784	-0.5543074241865765
Si	13.481931633425244	10.900445575638168	8.339499476538515	14	-0.9772694188723244	-0.5561809886333684	-1.0644160052566154
Si	14.612019360449146	12.3451001699652	9.58358072428416	14	1.8700289198661695	0.5474374307711408	-0.06304118845524276
Si	11.105341413525611	13.475399146564213	8.147229863255603	14	-1.352075639353827	0.3411278261139467	-0.008527070794271103
Si	11.984692144863635	15.043699742198688	9.628966882997748	14	1.2255798287078614	-0.4986339951367501	-1.3242665642111053
Si	10.71701594457516	10.664268550667423	10.9601967054591	14	0.9489641204028141	-0.39427360152353563	0.056004073193997465
Si	12.173484265140923	11.996229621657996	12.393882571847831	14	0.13072527889760893	0.16507961685383152	-1.9703771036272928
Si	13.281569536418964	13.63551007452876	10.883155610413944	14	-0.07301990531326946	-0.45179051308790813	1.086581761332144
Si	14.826892678268615	15.018041043806724	11.97877715676061	14	-0.9112223511872966	-1.4223503755167741	1.7881687831306348
Si	13.693506207879564	10.722264684018228	13.530730285275192	14	-0.09417675966117196	-1.1083983613051964	-1.016208294724903
Si	14.751444080020427	12.217586676436547	14.782790266972992	14	1.5128512259017304	0.9138153109026659	1.3211293014994605
Si	10.895148086293151	13.345578157676687	13.647551300309916	14	-0.6027344500020977	2.0984567151504696	-1.0499064866034238
Si	12.080778201603144	14.881638818156219	14.882841315737604	14	0.8133609404918203	-0.20098741664448758	0.6477570752632107
H	0.6793656335734752	14.374184838812171	13.467521162409414	1	14.950030241461137	15.608207749476376	2.0697428680455876
H	-0.22250917746125637	14.37256796706423	15.56684956497326	1	0.2035675208332562	0.35424689101000234	-0.12028170619769946
H	14.224922389027785	14.200802562540646	2.0874545514460436	1	-0.1230014214053521	0.10419815686751312	0.030974877123419953
H	1.7821355405424517	14.541777251729005	-0.9173106549882	1	7.283506855180403	-5.380117072453716	4.315179389927643
H	9.773130093038374	7.067123785702252	9.045277806987416	1	2.824324741371375	3.345501416623587	0.16213364437800584
H	7.4546416312771	5.863462706658427	7.548520942455094	1	-0.01159748476759194	-0.35247231411803615	0.09501879665352046
H	16.115697086061353	0.18143088508313998	16.049116094977506	1	-0.8195513907711408	0.034437898879127404	-2.674384563974171
H	14.426621858344172	4.467987013416538	1.9285152461249795	1	-15.873365584032715	13.433968476346136	18.475131849344624
H	0.1533704415218712	0.2816135585830116	0.6708490257031596	1	1.1233300554519565	0.12327678678513994	2.08582333204939
