70
config_type=vacancy dft_energy=-6842.734399474874 dft_virial="-10.6433051941414 -2.070128832934573 4.096059877745327 -2.070128832934573 -9.866857564939167 0.08481197180516716 4.0960598777453265 0.08481197180516716 -12.585618801961145" pbc="T T T" Lattice="10.88494682682718 0.0340918580127708 -0.013540955098303602 0.0350932791293656 10.955361970340785 0.0124415688724767 -0.0105040367121085 0.0093719954498709 10.910243595033336" Properties=species:S:1:pos:R:3:Z:I:1:dft_force:R:3
Si	7.0987118246363785	8.605120220797167	11.3225036332075	14	0.42004533281057194	0.7515137733472543	0.2401276100436338
Si	0.5527779253530475	-1.1597294676102325	1.9095794492006408	14	0.2978388971702096	1.6597377015101942	-1.1975858910926211
Si	3.0869132469398815	2.0671432653859094	1.8566445466776824	14	1.409601292676288	-1.6984431209997035	-0.00961619100788583
Si	4.681557728484808	3.1745560991625594	3.270187461792508	14	-1.223592364295387	-0.544019146248004	0.152326677355365
Si	3.1483536979466136	-0.9844524711745866	4.631868736581073	14	0.2644350968508457	-0.828914585015524	-0.4595611646969917
Si	4.488662251404376	0.3191071928077878	5.919240210513451	14	0.17274331048159688	1.151082309167103	0.20253547915774875
Si	1.8191881314133957	0.4268307154206187	3.2812977936806424	14	-2.1421210254709484	1.6744022578141906	0.8619039231572801
Si	1.9306974612474406	3.1749773491322575	5.789385281223875	14	0.3350391916053041	0.23181728342785118	-0.09131280544505903
Si	0.29138088989267613	-1.30520438931626	7.3988116092507115	14	-0.3722885941520134	1.0907479803929119	0.5393926993349295
Si	1.6364766716882473	0.323923810678366	8.631484808693953	14	0.36799433404630205	-1.6167200241777326	-0.20928797306005362
Si	2.9711652933797286	1.6409253761485982	7.306732026081034	14	0.8741305573967122	-0.4874476301098498	-1.264618720557394
Si	4.428850198213325	2.9101765703766773	8.565463944580012	14	-0.0212627838870926	1.4635225134504335	0.14804270167093428
Si	3.1073890432706044	-1.0373155326174415	9.97453856221264	14	0.6289620382623962	1.1804381612704256	-0.07518040511378991
Si	4.530963585570797	0.5403962240473237	11.261715194427767	14	-1.5430254608284564	-0.41349698467068674	0.9449395692451863
Si	0.5466649025369644	1.6683937042760655	10.06157403075808	14	-1.473101937652241	0.6556555108067055	-0.5782302736378943
Si	1.629345900237364	3.1770531209467645	11.403539283063079	14	0.501079887627807	0.3165004938049084	-0.3901665178851311
Si	0.42792683614280447	4.25261205520599	2.138655618122915	14	-0.598955953623608	1.2135108032245545	-2.067036265475068
Si	1.637749129607051	5.848612809263175	3.190176091579011	14	-0.803076004990164	0.0863271751187599	0.6565016615675663
Si	2.9983386376782857	7.12263272730843	2.009728091867403	14	1.7109345790871109	-0.5549219183580919	-1.5924493041765988
Si	4.486768259292555	8.426344781460722	3.1508158876919805	14	0.6113134571238357	1.468545939024939	1.195325118184615
Si	3.1579270661210175	4.6979309637411335	4.3402102788789065	14	1.4583273380405422	-1.532344575107497	1.1243153030106372
Si	4.577012629415953	5.833247526130727	5.833135410505718	14	-0.32990058051245613	-0.7910959397509341	0.9820946122266463
Si	0.5145737097549559	7.3299519339714685	4.545836866154657	14	-1.56968756588786	-0.18765777822271187	0.7182395567360259
Si	1.8416025484057004	8.658377319679378	6.017985775115767	14	-0.46040782967891647	-0.1461380268497686	-0.9632160143029271
Si	0.6628830886214321	4.4725012738847205	7.1899456423630195	14	-2.029080580296914	0.6374975937042238	0.23790128994691756
Si	1.8064352511938038	5.990447782910623	8.651356486851077	14	1.0485062626460713	-1.7189248030905349	-2.174359857969753
Si	3.1572772308964447	7.198791891726678	7.112423674425231	14	1.0861667849334722	0.02482427897656172	1.3319824512768694
Si	4.482201996701126	8.552229946823969	8.66995353008697	14	-0.7714622081946872	-1.9976994685329104	1.2422966412784002
Si	2.991051122052631	4.405566068751281	9.864386593392068	14	0.7788585068691573	-0.2522226036906744	0.5786210816465568
Si	4.26928462829608	5.487542806166424	11.565134907743854	14	0.3916618727393292	0.8810599433450433	-0.16247045917494524
Si	0.7905131214302256	7.044743934461628	10.230646570275693	14	-2.727573533953138	0.779775363026322	0.6847033444926746
Si	1.9942419851002355	8.534196747216768	11.421692217803788	14	-0.4020740779543329	0.7596415514853064	0.6057693827220004
Si	5.718907004639874	-0.9245566033900807	1.7609467854736989	14	0.44808709298476695	-0.6641247317312733	0.2878866626969804
Si	7.275303730538162	0.25706697763231257	3.1479128549550692	14	0.9381947886588419	0.22193395457720197	-0.05809181071395771
Si	9.004898415553948	1.7686816750981798	1.867250902503878	14	-2.7780291618662565	-2.4702645126076153	-0.5209321631362663
Si	10.787672915865773	2.3052714104012297	4.185662699556773	14	2.3613550623514623	-0.13106903567891273	1.252570778137712
Si	8.73368527614852	-1.1940412028681688	4.533538979442388	14	-2.1276603578188396	0.5556125172470837	0.25252856522377204
Si	9.893560602921387	0.20114740478141618	5.917578069160147	14	-0.6145602489221188	-0.3098683276315864	1.8699754408755105
Si	5.983014408122334	1.6591773644997523	4.519842368670526	14	-0.712667714396733	-0.19152446351368257	0.5293695023548642
Si	7.253735078988895	3.1255778985513643	5.807965996941563	14	0.17098930243219188	-0.012161328164300414	0.8911682439112055
Si	5.6180268891575125	-1.1914538354832276	7.244145383296286	14	2.194924843872957	0.33865725101181643	-1.1626034321066865
Si	7.065814052455027	0.41321138823492937	8.739489164619915	14	1.4438461015458721	-1.75051160328015	-2.329231158260469
Si	8.527818130104544	1.7489700066194678	7.3238269376420355	14	-0.543777205237378	-1.073331055843697	-1.3995367009005681
Si	10.081109362040173	2.974831365467436	8.36594276061185	14	0.8440095443501134	1.4419059454712884	1.8586600063615388
Si	8.57121231948951	-0.8914204494429298	9.985606442553442	14	-0.15500628332002336	-1.0945935826202575	0.484083338798436
Si	10.110707887042832	0.3591041699048268	11.362165351930722	14	0.10822373646726897	-1.0251637116655108	0.2551068696388165
Si	5.907498547921377	1.7853466286797737	9.94064698842319	14	-0.04468478202204555	1.1922716735064072	1.653972512050826
Si	7.579311234509642	2.9378353862165407	11.396977797746954	14	-1.4019072600057447	1.2176284283947714	-0.5865125752056872
Si	5.979641142861108	4.27426996385478	1.810764220520649	14	1.3241035561338077	1.0963475906696627	-0.48790785796215635
Si	7.354519406364452	5.98013423391091	3.081477271878714	14	-1.0460778536711914	-1.36147200085684	0.5095483372207787
Si	8.590594172100474	7.1989236003735355	1.5970206796944122	14	0.935885678970817	0.6029182840324883	0.3064446437872772
Si	9.984510321831255	8.655690898683991	3.044259238380225	14	-0.08470994987238674	-2.214295037133889	-0.027069625252647035
Si	8.657456447652596	4.500943810598441	4.507087311448506	14	-1.8370208126555765	0.8296347516156976	0.32517874559200416
Si	9.833497105949972	5.887995871675693	5.873597177621002	14	2.0459529447393217	0.15111028742840296	0.7691523271750661
Si	5.938973649016437	7.221825665909573	4.683473490620903	14	-0.24639905014053898	-0.2714873816334799	-2.102080173878154
Si	7.354641318500385	8.307691618161229	5.999829574871418	14	0.6415576261152695	2.1498297134418163	1.0746461762149526
Si	5.8818904683681055	4.401079266748451	7.342904009913166	14	-0.05071916620843311	0.5409549029274515	-0.11480473764472
Si	7.216402752862969	5.892396682082642	8.989705115613264	14	-1.6269039152403073	-1.2207731473118446	-0.6763446810968731
Si	8.578053549617552	6.990525689007729	7.558207372978621	14	0.24584240583872696	0.5863516240126461	-0.9913197381153376
Si	9.955223108175712	8.267136239941566	8.953743212515372	14	0.35716149600092223	1.3552118736233434	-0.40076307135158934
Si	8.742088505518208	4.443544964598139	9.928302296158732	14	0.21706890909041776	-1.3518591522858703	-0.3384739312024899
Si	10.055330387796353	5.7132195857983445	11.313042380658105	14	0.40089959704408923	0.1476819755945175	1.4224478204084077
Si	5.641794313158433	7.051775652302066	10.38861422041124	14	-0.03245197712984502	0.4981894510268965	-1.5747079061359812
H	2.7111843979983674	-0.28687122936435844	2.4767734846277984	1	2.0165940073096147	-1.335182191847794	-1.9386748608088034
H	2.9442085608226956	4.04060793931923	6.74522649799662	1	-0.011913216500906125	-0.09997691615289403	-0.061421134993017455
H	-0.5519049473796681	3.3182077813356563	3.066771620481762	1	2.7396736698108195	2.8791584474236407	-1.6221964785096483
H	9.579016407201388	3.660416235401587	3.661145531214759	1	-1.4568252983125118	0.9983671377978635	1.1906133105749115
H	10.891403816026788	1.0593065226376206	5.086068726518714	1	0.4346080733438906	-1.5915185640507052	1.1528265470162913
H	9.851226613718556	2.587034303569741	2.7887705875077633	1	-1.270561316283852	-2.07012467718563	-1.1071403194720482
H	4.556604320160479	8.658377319679378	6.017985775115767	1	0.28286940777524344	0.17898312598306426	0.20170475502880886
