229
config_type=divacancy dft_energy=-23101.086091214336 dft_virial="-67.56304302813386 -26.228620638011442 -19.998724591764358 -26.228620638011442 -81.52343788384964 -10.823496526215314 -19.998724591764358 -10.823496526215314 -62.40272554716174" pbc="T T T" Lattice="16.3199774331 0.0 0.0 0.0 16.3199774331 0.0 0.0 0.0 16.3199774331" Properties=species:S:1:pos:R:3:Z:I:1:dft_force:R:3
Si	1.0168161939692955	1.1325411539474075	0.9950943040058394	14	2.1440462691346753	0.7113695633205903	1.776170463043632
Si	2.437062230084823	2.647638898904112	-0.299797985446047	14	1.0424870479810724	0.10929691582789879	1.261994907578183
Si	3.8134238468827446	4.0880564271269515	1.334484554704587	14	-0.4960155814787113	0.23603595303715014	-0.5706357427432409
Si	2.512493165780611	0.0487640925701028	2.6628654378491947	14	-0.4854696787870599	-1.200761463273536	-0.42319750793307337
Si	4.047452323273399	1.1279715602661395	4.014485968858537	14	0.10737938548013237	1.0232616079496655	0.5130051883237178
Si	0.0665365479947487	2.683183809753404	2.524423069284207	14	-1.1338196509370966	0.3840174624014649	0.7026907973124304
Si	1.5622135198060645	4.09305034022148	4.022156358252094	14	-0.7411319071750284	-0.9195915561149105	-0.07294971413802943
Si	-0.06658550792704801	0.046838335232997005	5.292291241937967	14	-0.17232344898281673	0.28123881278120555	0.06895858734956357
Si	1.2639332922612958	1.4189077979660134	6.773035434397997	14	0.15959004988478337	-1.6552619213688802	0.34202231365482627
Si	2.6720862250988957	2.49553670922762	5.438648799558009	14	1.8938494393257452	1.61076791536159	-0.46843147805150265
Si	4.226466155737072	3.888169343526343	6.954758383115564	14	-1.0551960215785643	0.9189526364428537	-1.0370856699245055
Si	2.8468079034976648	0.209711710015335	8.251184750446164	14	-1.12408467486342	0.14179542996403852	-1.4874895859132575
Si	4.184817573327802	1.3908537567585144	9.620708296699615	14	0.7117516295711643	-0.28950131683803343	-0.3125052532479303
Si	0.0675157466407347	2.816371145584933	8.081538585029088	14	-0.43787491976367077	-0.030460913169922353	1.1636804681252964
Si	1.3912127962620426	3.7308774010261248	9.818082103775527	14	0.4296275852282318	0.9869246906810765	-0.8141327863089287
Si	0.00815998871655	0.1405802856087234	11.03547082039762	14	0.16715012796814677	-1.200706698730217	-0.7452001671230988
Si	1.510723991004634	1.0944340066411191	12.541478337924088	14	-0.782970218497138	0.0948925553823012	0.19743209220778682
Si	2.8162569057429017	2.312818241886633	11.126177254970791	14	-0.16623841402162226	2.6405750432352884	0.4668543620481238
Si	4.094633378032491	4.174470707635216	12.306389063000283	14	-0.3741981540732874	-0.4634070240348692	-0.8062312654390495
Si	2.6489444970987606	-0.210038109563997	14.139024608872814	14	-0.3178374685713854	0.1531268053309951	-1.4302727223397464
Si	4.0874036280296275	1.368266907991104	14.881779421808062	14	0.5172307999173812	0.3366209355982592	1.3831836997328306
Si	-0.08112660781994009	2.5891644197613153	13.490550305568588	14	0.6626216635611147	0.39887896537298484	1.188102112008723
Si	1.3011754807636298	4.229273191855566	14.82485534052141	14	-0.6852543323627822	-0.0012102192741937007	-1.0236467595266234
Si	-0.2020086806669118	5.453614218864161	-0.13078829914886342	14	2.3314996444844356	0.7892457723625554	0.31097030337180187
Si	1.2837783848199453	6.993502009541745	1.1603340755159768	14	0.2702267686950113	-0.9864858030029272	-0.09136602732518609
Si	2.772437766335028	8.429284664173583	-0.1216327918088943	14	-0.7424989638737511	-0.1582836712716161	1.1021976266045952
Si	4.040287853180268	9.759787144384493	1.3402455067384713	14	1.273355593545789	-1.800082513852605	-0.5846989175128549
Si	2.643705784342735	5.657108017477484	2.7011684248846803	14	-0.4198447865956003	-0.6778135535662737	-1.4077069022764028
Si	4.101912087967653	6.777343908440335	4.010944533755554	14	0.17576615900649498	1.3264291208958818	0.7871006991939559
Si	-0.0165321371397303	8.033900570901869	2.7384106133870145	14	-2.399987976670944	-0.00956116935403466	-1.9877246083328641
Si	1.213031282647457	9.135515367613554	4.114380550726542	14	1.9763708643496223	2.2672135268331766	0.6984096498438519
Si	0.1983693256993305	5.31357249251073	5.48334921774727	14	-0.42366570621187244	1.3065570478764572	-0.501966404742194
Si	1.5036084808438024	6.644026012789341	7.061605275370071	14	-0.5896899471603263	-0.3295809921211617	-0.3639168181190792
Si	2.658083684461296	8.04969830905711	5.61759735211195	14	-0.46701608457276106	-2.4588405774491333	-2.096691651348188
Si	3.8474183598758915	9.446035578233147	6.719179508868766	14	1.5756484164620912	1.8990885806366111	1.1547936996967367
Si	2.759936663621273	5.302491227833654	8.562847359486073	14	0.6883471149523884	-0.8791552685238777	-1.2719880226260023
Si	4.311395318298925	6.845659333975291	9.3537134658941	14	-0.9480495782404375	-0.6426850557981545	1.6656723268101596
Si	0.1730733606780255	8.308777950807574	8.166989986868801	14	-0.4800492745511237	-1.3045397586422691	-0.5907407579046707
Si	1.2542392256660344	9.758106186708885	9.461278437155663	14	0.7342212902955344	-0.18084794867176768	1.639993669535713
Si	0.1066347325478754	5.503667589651479	10.70784727342814	14	0.049503804723599096	-1.287404884346674	1.3391859170523284
Si	1.4267413871339014	6.989503615070635	11.886231243985124	14	0.9871085247114669	0.029568482513298956	0.7405423527251185
Si	2.8906923228152706	8.391193836844728	10.61567204088599	14	-0.02278333557342817	-0.2977550791367728	-0.029657956978440102
Si	4.329151453746137	9.61968013812133	12.032311361988803	14	-0.9202471879715483	-0.9866830067809825	1.5679135032169578
Si	2.714714006154153	5.724901203734582	13.44487068873334	14	-0.4874250043830325	-0.9132936336332078	0.3152298535556912
Si	3.9707157893829623	6.932922253310077	15.000637817453331	14	1.2899322808763798	-0.18100427187523266	-0.7215262006667712
Si	0.047703294036951296	8.129290838998338	13.382838454510127	14	-12.238949833915685	-18.061310905403598	-15.906237165550808
Si	1.3980508668065117	9.881142496577025	15.001176376708623	14	7.842286974181908	15.406351813454743	12.279687455050238
Si	-0.222441292413153	10.879092796633657	0.0921589125647157	14	0.38504281920313993	0.09322313669792905	-0.13740038252977738
Si	1.2124927233921645	12.143874727721474	1.4708379661581374	14	0.7956514241571724	0.4627729894629207	-1.3570101046842549
Si	2.7835027110346697	13.570828274562006	0.056385522031360505	14	-1.0459613826001886	-1.6504732377101043	-0.6831953912224077
Si	3.95922652527006	14.87265655442296	1.4395199294640186	14	0.34568613873603726	1.6974756140677314	0.16019554518767823
Si	2.576891796731624	10.749593775702008	2.6430693052228444	14	-0.5702835013143807	0.24410562419496687	2.0733249319776186
Si	4.163993282123166	12.208175438807888	3.7416322661545376	14	-1.2760526830266243	-1.1506418788257613	1.4318529236695094
Si	0.0552431236110435	13.580587621067	2.804735001675133	14	-2.9538842811168284	-0.45600378337603487	-2.3520967692041417
Si	1.189710034895557	14.757486473677574	4.12921541021323	14	1.6168562927597006	3.445283185882682	0.44502362099581044
Si	0.024218846510720402	10.725081169597491	5.357048912392508	14	-0.31694503791476203	0.14336328998826478	-0.34929108550541693
Si	1.3604006788683498	12.249464981713633	6.448431083253638	14	0.6079442807123137	0.6665454273901927	1.5293523227359087
Si	2.8062853995312773	13.592762324232092	5.099748148182254	14	0.8636183361847548	-0.239368105532062	2.0627769724017107
Si	3.984522490291365	15.115514138604922	6.838217424265798	14	0.2545509966686005	-0.5774419727467369	-1.7024740999206316
Si	2.5730566020348453	10.889570222145707	8.051199746980956	14	0.9933213436070729	1.6154141597856295	0.017333620736842303
Si	4.090683943493681	12.3309995889694	9.532319298921946	14	0.593521151197879	-0.69726345109213	-1.2750535514992147
Si	0.14464395998956528	13.816574494749627	8.050579587838499	14	-0.8640659656209926	-0.9237207512590683	-1.8113789221872076
Si	1.355374125818955	15.199382502633622	9.303562175242183	14	-0.09885051491213716	0.22093585149192047	2.124966867885452
Si	-0.094982268660642	11.041394972205836	10.953724053435224	14	1.664559295317068	0.22132563105845493	-0.2428900055996009
Si	1.5002465654925836	12.220937661160573	12.282692455767423	14	-0.2638164889108181	1.2877067321112594	-1.1432970022576947
Si	2.6712049463175087	13.717887591211671	10.604802935915545	14	-0.6664958050575139	-0.05174143768372397	1.9623274870909733
Si	3.7884053214778026	14.947907970366984	12.390910226126309	14	0.3068858454602147	-0.7540625100511171	-0.1391250799785327
Si	2.8611368436839264	10.858529625067952	13.541387035272693	14	0.947552583582053	0.4237173854288074	-0.449320452206842
Si	4.357956213915559	12.246021466475247	14.76541798271006	14	-1.8381991502238004	0.7728590897151237	0.6062031281895094
Si	0.24153566600988002	13.7787447870597	13.60870694218423	14	-1.5703226289019365	-0.490871056843627	-0.23336226061472817
Si	1.01905203087763	15.083673862632942	15.500632966071214	14	0.0774080107631662	-0.3525119091399664	0.6278114686316298
Si	5.383519915788996	0.0758715750864819	0.2245139295471567	14	-0.7728734879049165	-1.0775936913539705	-1.8025926839766657
Si	6.555098455756379	1.5431354661867704	1.4489202364654843	14	0.15701457368559102	-0.39894195745332844	1.1917404831472644
Si	7.859717451758393	2.663110237510691	-0.0452552974219863	14	0.7607977775477771	-0.25602501134864136	-0.6765092318373626
Si	9.267021745769473	3.8070264157289695	1.279633110551938	14	0.6532949790122775	1.7693917438670614	0.7445432497138009
Si	7.799464095075387	0.0626523933656709	2.8950823967447743	14	1.535568998289495	-0.5342494602525052	-0.6034433037388625
Si	9.568827088439791	1.1942143486670926	4.074266046195982	14	-1.7242261651501483	0.2319101003299085	0.20526393612348984
Si	5.125925391984946	2.883234093128344	2.786587186769526	14	0.5279880474663488	-1.073317686096032	0.01824944845187905
Si	6.726295019029598	3.9588674857665316	4.1198803831214965	14	-0.31291791565181404	-0.5468044246413204	0.19955042588105681
Si	5.585202196907246	-0.0842437235096622	5.3977509361106595	14	-0.7401242910000624	-0.504222549660624	0.21433068192446006
Si	7.002526957062249	1.1223574880291531	6.826777120085195	14	-0.7771775182108444	1.7526224807479918	-0.9355871736431478
Si	8.232514696262696	2.7691574508709746	5.3925448633095	14	-0.004876358350192846	-1.6030018917420825	0.5911292519185453
Si	9.596652649963225	4.130374128610979	6.676780207497573	14	-0.6173015614144606	0.5503155260665146	0.9151792822750044
Si	8.188662916899958	-0.1143867218285979	8.24264940224865	14	-0.4692051236423352	-0.7656666796925414	1.5990300482435178
Si	9.388654537578367	1.3675325090066144	9.625016770741954	14	1.2590566484183174	-1.402539751914501	-0.9136289057669552
Si	5.64018420087936	2.5095555698426533	8.203285616680015	14	-0.07231825067140106	0.2970032879411615	-0.5756864220341398
Si	6.872881056333702	3.9893368836341296	9.470923543818625	14	-0.014454496999340484	0.12036732400486037	0.42738146762055035
Si	5.165305497531016	-0.10098802035602279	11.068045495354088	14	1.5278250861757408	-0.21807781081804387	-0.5693278214668815
Si	6.63775914145503	1.3719225829361184	12.190174503699177	14	0.07816802949580198	0.10553436030239409	-0.12918055882126395
Si	8.136096269587942	2.634680836822231	10.879092796633657	14	-1.0863930422016452	1.201160241708691	1.3151473678616041
Si	9.457231082752253	4.115620869011457	12.213430471541345	14	-0.4496089302237626	-0.34288851903718415	0.0012960941918866466
Si	8.017123634100642	0.0577400801583078	13.492378143041094	14	-0.011321862277272067	0.0663514865549334	1.5369239707932127
Si	9.39472556918348	1.4409397675006983	14.892550606913908	14	-0.5523960644915784	-0.4932102484638977	0.2594499807456106
Si	5.434846244816096	2.8017484458048756	13.582186978855443	14	0.2525445060767569	0.30400106529100845	0.7770214521179114
Si	6.758086335069277	4.251990600442441	15.069214362627216	14	-1.257256617583682	-0.2673877542005038	-0.6363799342215555
Si	5.269345353667029	5.529844833454171	0.1352599729655328	14	0.48344699023169946	-0.09741686658562257	-0.16501919587880803
Si	6.821522087351737	6.7804773441074895	1.5508548155126267	14	-0.07034004223807913	0.5234474754709673	-0.36977353892784454
Si	8.284967103732681	8.039057683770729	0.0568261614220542	14	-0.3807583292976452	0.8713599343037207	0.49015757511728597
Si	9.752802194043127	9.5775582763665	1.4797649938140431	14	-0.3710763179935636	-1.8812823907419256	-1.6955868800995508
Si	8.058984376216545	5.2113278338923585	2.8438213476274075	14	-5.591215360769686	-3.097783389453812	-5.946992316555709
Si	9.831121765744573	6.68097444169788	4.258028992092688	14	0.94114873156116	3.327560243699594	1.3273758018747601
Si	5.466523321013743	8.336521912443843	2.7776601591136196	14	-0.8339778627224917	-0.9700186447589748	-0.8368621286706338
Si	6.722117104806725	9.384068623919665	4.323880101035247	14	1.8483663291017938	0.6106256864506961	-0.42437661683289335
Si	5.529126754447114	5.462280126881137	5.299227232347035	14	-0.5251973697518599	-0.1598389328797737	2.1885451602420742
Si	7.074775497158583	6.724630381331422	6.7301465337038096	14	-1.723687004364513	-0.8522553362223603	0.2298282763521846
Si	8.380912251061876	8.032856092346151	5.532243870136837	14	0.06832840943559527	1.4296687697000436	-0.5613357976897333
Si	9.515167002639757	9.600536804592304	7.01501173979857	14	-0.044690695564281895	-0.09236284485780749	-2.28299805661463
Si	8.216308958671627	5.430276651134827	8.276856074948428	14	0.46254493242102357	-0.04919578630624536	-1.2017670225642458
Si	9.620985736315978	6.843570376863855	9.478365453528118	14	0.4551815438946515	0.7671059844507603	0.5569860017091068
Si	5.78500768062069	8.086842577694846	8.185039881909807	14	0.6844783727771615	-0.473871936908936	-0.07685573734039838
Si	6.7984293192839	9.557843743627314	9.6730138243727	14	0.28552098869191217	0.25032898462238534	0.036393738696164045
Si	5.585512276478475	5.366400259461675	10.865302415702688	14	-0.453314664321692	0.9449025453285763	0.0011485127465101469
Si	7.008369508983299	6.875492252722998	12.168860613171551	14	-1.1103721988594744	-0.03501228380764848	0.12648526911415275
Si	8.347635817075783	8.366664910762779	10.947718301739842	14	0.060833637427363633	-0.2911599368800609	0.04588600242761874
Si	8.09896832092764	5.458950851484785	13.602521670737087	14	1.0727846959631655	0.20566451433236896	0.486912583092727
Si	9.654229530347202	6.698061458070335	15.063469730570766	14	-1.0227281035957347	-0.9052913254347789	0.009317685680216639
Si	5.573468133132847	8.15230200717901	13.621599724356381	14	-0.5489142736670338	0.05071865198736906	-0.9341753797118545
Si	6.997157684486759	9.50070750263403	14.870192237830562	14	-0.19872638662594935	-0.8872570784981962	1.3537044345741407
Si	5.455507336246401	10.874441603065224	-0.1297764605480112	14	0.9928839985921157	-0.5871928896733986	-0.08202083081804387
Si	6.766980722770317	11.979516234992724	1.398801585768434	14	0.6952142801519718	1.650585595012595	-0.5257689264645289
Si	8.082778903314004	13.892756149407335	0.16830792726756028	14	-1.1870495014906544	-2.2210606436733262	0.036420221080961566
Si	9.453575407807238	15.097056244128085	1.3813718498698833	14	0.6435895706497826	1.8616681995861122	1.1540807321914597
Si	8.225023826620903	10.64415040150675	2.615782302954701	14	-1.502806431636976	1.0841032158035213	2.5108825773447827
Si	9.659598802922693	12.18792234681341	3.894991094093378	14	-1.643373130368516	-0.613731067456371	0.4645190270858333
Si	5.466294841329679	13.604137348502963	2.6057128768784783	14	1.5940037944531604	-0.19879940601704155	-0.1452193709188797
Si	6.871852897755417	14.628460732091483	4.236062302467735	14	-0.28392458939863224	0.698620994701168	-0.3370906765402502
Si	5.248129383003999	10.835175737361185	5.4052744457073185	14	0.9696808015199073	0.7535508600924077	0.5839962344288584
Si	6.719848627943524	12.202887766119565	6.9572226997079625	14	0.4178696634886626	-1.3591184110467764	-1.1078016077603903
Si	8.320691534333736	13.261385182452997	5.562925427711065	14	-0.698948039297891	0.5113655944610594	-0.59794679478545
Si	9.40441963577874	14.81116287945504	6.936186248796697	14	1.4804301020357271	-0.02778722074750036	-0.6666061054757482
Si	8.197753144330195	10.839973810726516	8.358961881414356	14	-0.9641819785717066	1.3002750662477394	0.20195800890284346
Si	9.468655066955423	12.282594535902824	9.788738784350814	14	1.197491788637904	-1.1064026693556979	-0.7107512124910946
Si	5.3809413593545665	13.71062520125394	7.990587350794422	14	0.1425958150502006	-0.14992706476007084	2.0243857419823232
Si	6.745438352558625	14.751382802117595	9.775535922607435	14	-0.57905791244045	0.8920467905991002	-0.7803952565190098
Si	5.6545947409527875	11.134402523597073	10.989644323765477	14	-0.24125683950024282	0.22532987048405353	-0.42816436919053547
Si	7.028932680549004	12.104282462468774	12.697595242049124	14	-1.602453989198359	1.6304235013130581	-2.5983047862193933
Si	8.14645945525796	13.435323501934976	11.179674140996493	14	-0.2891261925718238	1.2205260640905782	-0.004471923483333555
Si	9.448891574283937	15.149019052275076	12.226600693329857	14	0.38059403566768774	-1.5643705200857936	0.052919261030883805
Si	9.452612529138685	9.94518208802451	12.467450920287549	14	0.388654707956884	-1.8884871420700446	-0.91850552122768
Si	9.35714066115505	12.255927692777139	14.725189238337467	14	-0.6761608470664825	0.704333990722537	1.4405008364138276
Si	5.588759951987662	13.689686670207273	13.44139453354009	14	-1.0189416367907524	0.4579596231930715	0.4097886794674372
Si	6.767747761709671	14.95241228413852	15.010576683710088	14	-0.6816889806153329	1.6807377184335675	-0.5330173865830903
Si	10.790964918494918	0.3140290057677102	0.1065531326607099	14	0.37977436729162456	-1.328863957634062	-0.5444711465632861
Si	12.294557079361287	1.5876726846017004	1.386675842535641	14	-1.2043291290157734	0.8739215265341841	-0.36082634952426124
Si	13.71088632089287	2.9125121326433256	-0.1201803138173484	14	-0.11541974603729943	-1.3510479685573635	1.9492490456589764
Si	14.940368140792891	4.229273191855566	1.316516259550744	14	1.0317323715374251	-1.6849653869114871	0.22791588821505848
Si	13.324592455051393	0.0706165423530237	2.7112868108932022	14	0.5613023733205714	-1.4556006808485251	0.2210947458007056
Si	14.688567208977592	1.388683199759912	3.9850610495466574	14	2.5283804917115824	-0.29932113938727495	-0.70681639290914
Si	10.567805547074707	2.7770563199485956	2.824204734752821	14	2.7566753608508305	0.11200506106161075	-0.34596767476859347
Si	12.338735258272688	4.187249249965333	4.025175554077217	14	-0.7121938596862298	-1.3351757640844935	0.14844790786938963
Si	10.821858635775776	-0.1900298172310164	5.378199603145806	14	0.334153702933045	0.1671439573153784	1.7263211017650049
Si	12.070891788640651	1.5228986941697265	6.789029012282435	14	-0.9881667916612401	-1.4584345531323923	1.1240178261250962
Si	13.531644008745133	2.5768265168218916	5.466621240878342	14	-0.06622215995732997	2.313246082264044	-0.3217622608425914
Si	15.04907551047477	4.029288188390359	6.628114034792069	14	-0.9910970803946129	0.100288791228228	1.192340579128987
Si	13.700947454636113	0.3676727715903099	8.179213649966192	14	-0.03992129519540721	-1.2288669868596707	-0.7234108208664397
Si	15.104955113205705	1.545534502869436	9.657395605969224	14	-0.4211671060617525	0.316060063463567	-0.707927110407444
Si	10.578021852947828	2.829378167599114	8.300373162429526	14	1.5899455618158387	-0.40187970239212967	-1.496123871799379
Si	12.261590724946425	4.185535652334858	9.211501182542067	14	-0.657209229751671	-0.871485661353876	1.66393811627172
Si	10.878619517288097	0.057886959955205694	10.920398659516835	14	0.6127432487923701	-0.06392616290643774	-0.9516257286302315
Si	12.074008904330373	1.6206716789714286	12.104233502536474	14	0.9064506368236338	-1.5759880594748825	1.2633413954343444
Si	13.439093416722022	2.8166485852012957	10.746003380666727	14	1.3941790316344438	1.1409351849106064	0.17984033249680162
Si	15.048128951783651	4.190725405158584	12.251145939389241	14	-0.6695903874208441	-0.6356235150363678	-1.3155407469755867
Si	13.441671973156451	0.12780174327860608	13.797920760543594	14	1.0281225396679372	0.9067951649365334	-1.7476826160963914
Si	15.008797806169879	1.2894250970117977	15.252014429855368	14	-1.4856450749565837	1.340792086545825	-3.5674664815751624
Si	10.731103241270306	2.725583111124598	13.527710894183755	14	0.7378234088490618	1.2955180071844015	1.0901250015738402
Si	12.307710981172365	4.080663477349757	14.968373222068092	14	-1.7844885029753748	0.15487798516454798	-1.3370146186094636
Si	10.861614100802807	5.2046529631222205	0.15038859204601648	14	-0.12823516339504554	0.0013770840094713113	-0.5906407419077171
Si	12.230158448410274	6.664719744174512	1.3022362792967814	14	0.23512732441700981	0.907045847705248	0.3210348951475216
Si	13.462316744609325	8.146590015077425	-0.1710007235440218	14	-0.6373343285163943	-0.3981063482242803	-0.3689734109522145
Si	14.626796094393308	9.482527047773559	1.2745249576153777	14	1.2672312206731964	-0.3235214111026367	1.30955881333773
Si	13.72058038748813	5.476396907360768	2.6653623943964586	14	-0.8423210994863722	1.0445290198263342	1.2497533609278937
Si	14.965027626694306	6.834643349207949	4.210684737559265	14	0.3920989606437544	-0.769446204513159	0.17414199177575745
Si	10.940260072052915	8.05012262847037	2.7765993605804686	14	1.1068006764592566	0.43360045716892454	-0.10102104202340614
Si	12.255748173025374	9.515950361556547	4.279799841988443	14	-0.7840475116262801	-1.053746175288533	0.47750747983162534
Si	11.160139128009073	5.4848506556711145	5.576732128619468	14	0.4194074415806432	-1.0308720796973034	0.17564608838804405
Si	12.499797115559954	6.801628034860788	6.889298953631401	14	-1.5143401529926281	-0.46041657143700504	2.2118388602215515
Si	13.636434583843068	8.191420993086151	5.718487452603374	14	1.1455282074545188	1.0374019158788836	-2.597720373980124
Si	15.049287670181402	9.56334357602227	6.883603281507249	14	-0.23618584847731477	0.3766329908114676	0.06442829977546266
Si	13.895710065322728	5.4548218971942095	8.306117794485978	14	-0.31970280548115276	0.030319759487846223	-2.25393351074408
Si	15.184971962560194	6.921286109400277	9.47743521481443	14	-0.8654898437472907	0.5299816825315916	0.40993446113908955
Si	11.015886847477901	8.390279918108474	8.147112254355285	14	0.9815258837298295	-1.967773859490643	0.8841624961348661
Si	12.425165858758385	9.608027674234098	9.626175489139705	14	-0.12952405849203574	0.08210413463041666	-0.36278733155193815
Si	10.876595840086393	5.27482886608455	10.795681391973083	14	0.9411839557040461	1.9683001647496772	0.15729842371293537
Si	12.328355752625235	6.922444827798027	12.242806430920925	14	-1.470545487632418	-1.5869224561804085	0.46067085375316763
Si	13.713350637485268	8.16261623291673	10.922601856470303	14	0.5123390149352675	0.19737707055393564	-0.3523576428207575
Si	15.057643498627147	9.622585094104423	12.223271417933505	14	-1.3950804611596876	-0.6256579108154738	0.1338882526624551
Si	13.710429361524742	5.413728194017665	13.665973742996979	14	-1.9245551217221462	-0.034751573728185464	-1.5056958397957585
Si	14.925631201170802	6.7874786144262895	14.835398045943192	14	0.628784631995306	2.1233691830395127	0.44729210721977714
Si	10.494039249077096	8.127397721616099	13.526078896440445	14	2.272767114324697	0.531171332963224	-0.6632772954177524
Si	12.064347477689976	9.525513868332343	14.707220943183625	14	-0.30260212688631594	-0.5192982257053121	1.176785134831559
Si	10.7455464212986	10.939313513361796	-0.1177159972249503	14	0.9846137812193273	-0.33357109046749955	-0.2720360555087995
Si	12.168289413961393	12.247229144805296	1.2895066968989635	14	1.1359876069430457	-0.3663238869198019	-0.776961802474484
Si	13.74868338862793	13.620147246364834	-0.06834806548982279	14	-0.6797729929307585	0.42733544483531977	0.5057806394846337
Si	14.945753733345814	15.254576666312367	1.3214448927355402	14	-0.003130063616748271	-1.864220021616359	0.7933253451740344
Si	13.39943587155959	10.806207777417432	2.8219362578896203	14	0.8741398133758647	0.9584854376243864	-1.0943290158828143
Si	15.00053989758873	12.150598558423912	4.050912158489216	14	-1.0355604902485935	-0.1302365117762488	0.2081260905658787
Si	10.800414185428682	13.551260621619718	2.493023432702923	14	0.36835480301218687	1.4347361611755236	1.0054711017974325
Si	12.169513412268874	14.683540655928196	4.157416331217627	14	0.05228419801680723	0.574196209390582	-1.2361617268739948
Si	10.769471508215524	10.95054165783577	5.462231166948838	14	0.831393387654679	-0.6382010481198163	0.9751171466088284
Si	11.980103754180314	12.166396296579153	7.195543330163523	14	1.4502085587711107	-0.021109803120543787	-2.2192282169116573
Si	13.570958834381472	13.439974695503409	5.544239053550165	14	-0.1726548644585838	-0.2204085177907581	0.4642459757008336
Si	14.917699692138315	15.073212757098325	6.636959462560809	14	-0.4482770976679259	-0.11513538178889106	1.4041261238970326
Si	13.7693771200131	11.031162346355284	8.213028643207574	14	-0.2722458577029236	-0.10451286015869926	0.753608452851579
Si	15.217824077133026	12.476426907875751	9.51080956866512	14	-1.5374266218833017	0.29832817851263377	-0.11876603961147215
Si	10.829267905530402	13.657879034190161	8.442650725691292	14	0.3888745374617567	1.146170726674024	0.44981230465458627
Si	12.557471915808527	15.2032176973304	9.609398552338478	14	-1.9321954182914982	-0.5953247815799628	-0.30802870177502045
Si	10.9950299163184	10.842177007679984	11.052247757198849	14	0.24185744970302941	1.0577892384044656	-0.6542367748910478
Si	12.405288126244871	12.350355082205056	12.233487723806626	14	-0.8968794401588506	-1.2978885662895778	0.5668986411604057
Si	13.664537584982865	13.67787100654571	10.998799831105446	14	0.48560826136381596	-0.4687430960163046	-2.5835615540926007
Si	14.785671074704537	15.074485715338108	12.213446791518779	14	2.095813875991889	1.4112727682449162	2.3748358817660633
Si	13.630951071425546	10.843760045490995	13.63666306352713	14	0.0003995497667510115	0.6130983184370824	-0.6367260049976473
Si	15.059014376731527	12.225964214209966	14.852289222586451	14	0.061086634190866185	1.0403095788854393	0.1218487948903297
Si	11.011855813051925	13.753595701835293	13.497910615390914	14	1.9887646204348637	8.268647970100892	-7.456349924548422
Si	12.211929033617501	15.032918732816	15.008961005944212	14	-0.5282009349868569	-0.017589959937261066	1.4313957811435873
H	10.802867078036876	12.893593275027424	14.306449625361244	1	-1.9454219553899355	-7.399021732114549	7.049331611063444
H	8.561928544756588	13.221663989378575	13.673012549263873	1	0.23659311156002624	-0.47317028226706753	0.2662747227074117
H	6.948515991747405	4.3846067370638115	1.8946563561115413	1	-0.301960893219471	-0.15260152851408887	-0.21545656894415294
H	1.0516054898634348	9.023777378122347	14.4044168178944	1	2.0468841990862794	-10.148782619427903	-3.7262792863216654
H	1.9521173646557433	14.327970779602273	14.586883957582918	1	1.0907029860498094	-1.3829093627951705	-1.157628086201668
H	9.017652490591704	5.780395654998095	3.4968636126151607	1	3.924837265549145	1.5637951067151445	2.392239179457081
H	-0.06500083811829399	0.0810939678650739	0.10029931730834597	1	11.490379204828402	-10.168968624406919	8.579317968371301
H	2.892529952274238	10.259065845993065	5.737057954924499	1	0.0027132874443522676	0.13432688323007236	-0.13511569834229378
H	15.880485336819849	0.4134356203104656	16.16992340059136	1	-11.579163071080565	9.978876523667092	-7.567118283951042
H	8.436413230316361	10.992115168348848	13.410557936180247	1	9.320130287155035	0.8774015175850047	-5.854686036014944
H	8.040218034166223	10.47667152909279	13.883791585803333	1	-0.6568065946585357	-9.812718071020925	5.317222951222786
H	0.47614186960166577	8.83988060841069	14.01837754370088	1	1.9286814886504515	11.624014717837888	8.28046194193644
H	7.828884118394037	11.154410815930055	13.709058483420362	1	-8.76244005969874	7.588267424982983	2.3106744627228317
H	6.740625591213603	7.086623800775013	9.237725754279314	1	-0.39519431433868063	0.5268428771567547	-0.48860385617232044
H	6.982995208070315	14.846365070778235	1.2148085281899215	1	0.2517770311386927	-0.48018271491723946	-0.3057252485186998
