228
config_type=divacancy dft_energy=-23096.891886093676 dft_virial="-82.96494897118859 -4.065904992794502 -15.48747337856123 -4.065904992794502 -69.23463995966841 -17.374652149441626 -15.487473378561234 -17.374652149441626 -76.3933118316719" pbc="T T T" Lattice="16.249967316 0.0 0.0 0.0 16.249967316 0.0 0.0 0.0 16.249967316" Properties=species:S:1:pos:R:3:Z:I:1:dft_force:R:3
Si	1.291092403190832	1.03845416132898	1.270243695124404	14	1.947997431589128	2.0614191716821404	1.7564968793549227
Si	2.61673223689548	2.69595082756098	0.107136034514388	14	0.2882635867369141	-0.2928203566958126	-0.3860658620100269
Si	3.9509033034410277	4.054350595374684	1.528943174795124	14	0.5631638535723585	0.14480413740967576	-1.0341044733057938
Si	2.791565635248324	-0.144965958426036	2.70448206040188	14	-0.270950534842633	0.8155391809190499	0.17178274553398956
Si	4.13391043535382	1.3956934428039238	3.8863909331965076	14	0.245947821156853	-0.8241752665788952	0.6866185608456528
Si	-0.042704914106448	2.554072362924984	2.569574831744448	14	-0.029012866653614952	0.577685970641619	0.07128363789057346
Si	1.204415077527288	3.9046071465577437	4.095544262520743	14	1.0950450687144755	0.3463715954143887	-0.44662927626824295
Si	-0.024927449862744	0.13953846934249198	5.5918087530433915	14	-1.084064392113187	-1.3849055689657337	-0.504937574050157
Si	1.350112284482544	1.455135823245852	6.757613908227864	14	1.7485421366049168	-0.20465664104687092	0.6333118342430226
Si	2.842216783372296	2.65825090338786	5.3508542376817445	14	-0.6075277616504496	0.2208286364000703	-0.29299827718396676
Si	4.159780383320892	4.171659109428888	6.564938045762052	14	0.32214098465624924	-0.8328033818122482	1.1011851253295213
Si	2.6928958337055717	0.12275225310506399	8.361160682970745	14	0.24750205432288247	0.8258781096324292	-0.8337446634699544
Si	4.3246363017417115	1.683610363708812	9.423941045371775	14	-0.6737121263595734	-1.8362944754026345	0.9421555764045302
Si	0.006841236240035999	2.847140523469044	7.9359152882783395	14	-0.16380460572557007	-0.1219547244295198	1.4996267456875487
Si	1.263824958034584	4.207571537197247	9.356698680618168	14	0.36227028227205643	0.5312379245910159	0.32246031593701163
Si	0.282196932409656	0.373537998692892	10.908668059100064	14	-1.2048364080954388	-2.0784843690235593	-0.541084486635587
Si	1.607576766637248	1.568641844948112	12.335967688333607	14	0.8924723085295846	0.07840200007993545	-1.4706421611924554
Si	2.738509491961584	2.953902808735164	10.653056073219384	14	0.6044234090869028	-0.3461715634204813	1.1139318941752192
Si	4.017625669240523	4.267615166429867	12.280474049949468	14	0.42935556228536015	-1.425818025262058	-1.1217346846008047
Si	2.817191833705656	0.152603443064556	13.675777493537808	14	0.6965617964502614	0.20499217029115022	0.6465023758669783
Si	4.2879113756075515	1.5525706272725879	15.05375847196729	14	-1.0796333492044439	-0.95771127781249	-0.1587919787934094
Si	0.066397366453176	2.65166966662488	13.534305278084712	14	-1.089511535844453	-0.6284264770242093	1.002390917623895
Si	1.233275019480504	4.014521925483168	14.905266270633684	14	0.7631721933109338	0.6659039366128158	1.041925004358088
Si	0.06532486861032	5.468244001572527	0.10434104013603598	14	-0.8340627091980566	-0.42297742131766874	0.3660320664659651
Si	1.464219554975496	6.889238643487464	1.447742088117072	14	-0.4456645975521234	-0.5970479363655261	-0.37321650606205486
Si	2.8264218151411438	8.018156372864615	-0.0625623741666	14	-0.12045191336989326	1.1262657435065015	1.4926212550217413
Si	4.015529423456759	9.617835655386287	1.406548420971012	14	0.9265762208276248	-2.1006979476580425	-0.7618966679616083
Si	2.672680874364468	5.4493777895186515	2.8230255719721	14	-0.47363128145097005	-0.40592945038189493	0.8296913159327408
Si	4.177005348675852	6.712910248141548	4.125070453133915	14	0.3416857559684189	0.6573853504661011	0.034319370923868574
Si	0.065422368414216	8.153876099887848	2.8739042196384963	14	0.31552990154655247	-0.8667712826388525	-1.1046604883907654
Si	1.4215796407383121	9.42839353641636	4.079619294551064	14	-0.11327544420029594	1.4683541345680557	0.8498140717208799
Si	-0.018313713165131997	5.368761701663976	5.45194528435458	14	-0.08956959603799863	0.10593442429020913	0.6270059413348275
Si	1.464463304485236	6.916571088512976	6.604279216634088	14	0.20139339417453897	-0.442499309792489	-0.47546962175487595
Si	3.040255135052388	8.357098191141743	5.300008089949979	14	-1.7775745436589647	-1.8075263779754978	0.33151600598510517
Si	4.197074058311112	9.558182025369252	6.751341420843888	14	2.1735486742412466	-0.9520599883188045	0.26402911932079437
Si	2.750355718134948	5.420452847696172	7.872849165124944	14	-0.31237824064511494	0.46652937433565705	1.0196150092740992
Si	4.119756713821585	6.829178764287528	9.260092624924548	14	0.11455662598132572	-0.5682916660228619	0.4907065061031376
Si	0.10226104431958799	7.865536679832744	8.22475845732024	14	-0.0409960172192291	1.54850551470782	-0.2323908970247762
Si	1.411813410381396	9.495717151006549	9.394171105248862	14	0.5141359604435188	-0.7150364737281855	0.17038740667674523
Si	-0.023676202379412	5.414716609233624	11.065886492882363	14	-0.6868589591930866	-0.8604378789037317	-1.5302228989973108
Si	1.1745151376658478	6.788602595899476	12.362341385287476	14	0.6664775502097409	1.1622756161783676	-1.363658725931626
Si	2.680724608185888	7.87416541247754	10.785867056093052	14	-0.3792161803266204	1.730313514106131	0.04327530208554038
Si	3.932605840243212	9.560814520074443	12.050715762068544	14	-0.20744449054550748	0.1288810250514667	-0.4401547188510461
Si	2.446221329848692	5.372694193754447	13.438007971770096	14	1.7208467043173454	0.27121073070103197	2.245152928965242
Si	4.17307285658538	6.983228454443208	14.742669097669788	14	-0.31684039392823193	-1.5139647716158866	-0.8566632391832223
Si	-0.031866185906675996	8.154607348417068	13.713802417057247	14	-0.9451483429971823	0.2161687651178339	-0.09515609367761636
Si	1.398098437966692	9.374638644535032	15.025954777889616	14	-0.36481104854942675	1.423479604973383	0.17990846678778555
Si	-0.079527340044504	10.910374305668244	0.008709982481376	14	-0.23411045226289123	-1.138632502985882	-0.4553057282816147
Si	1.304563626095796	12.238825383718561	1.246421243039148	14	-0.01258247521574067	-0.2084695902366505	0.6901574302083047
Si	2.612068496275788	13.67784123938694	0.099271050333444	14	-0.35565971338342367	-0.1376510652984918	-1.5848699428033342
Si	4.092830517978972	14.72136539051851	1.3930934480333639	14	0.764164639964511	1.0807666924295651	-0.04232347889602156
Si	2.5569648571072316	10.769649588711683	2.57748856582734	14	-1.3073448345465506	0.8278699449239479	0.3320351121492431
Si	3.976562001832992	12.018362077142386	3.83523603608574	14	0.5170582787503992	0.9357573808153415	1.0898275246882991
Si	0.004907490129432	13.727078640354419	2.446318829652588	14	-0.18736724332153515	0.32520934174531396	1.1292045168874307
Si	1.275037435482624	15.072705933857748	4.152289148388215	14	-0.862337668624789	0.06926532021425723	-1.276274826526285
Si	-0.133314731860464	10.904036818415005	5.248381943787048	14	1.1662106928708542	-1.435008184118395	0.971341992667255
Si	1.386739710812808	12.030273303185016	6.7042977654640685	14	-0.42161627816118236	1.3444417705477751	-0.5697595100501344
Si	2.528283664794492	13.607088881693075	5.25263943522384	14	-6.099180668444849	-12.176277599073883	-6.971867293093766
Si	4.129799193622872	15.245508086296091	6.894162383584212	14	5.9828458660241095	6.357148921194458	5.253306558516565
Si	2.8925104322153157	10.870431886005514	7.956243997390656	14	-1.3192775914478898	-0.12639836575433172	1.9116312037198897
Si	3.941397072561168	12.397327564918823	9.395942351686307	14	0.6566674978607158	-1.1628327747012435	0.6314007316585566
Si	0.20273459223441598	13.490300366592983	8.138958629891759	14	-2.0242602720427003	-0.07281807354563785	-0.7300211326445405
Si	1.3343660661533399	14.86368260427204	9.518954604268428	14	0.7800116476052436	1.2342141145939827	1.5688781819330773
Si	0.16492091829008398	10.836956953334555	10.881108114532127	14	-1.128562768999522	0.6386584477562706	-0.22234430298629762
Si	1.410269663486376	12.232309146824843	12.35493140019138	14	-0.53794311015543	-0.16958496470632697	-0.4126395210464173
Si	2.710787047720488	13.539797767037518	10.977779170095012	14	0.255305873190596	1.0659183020951781	0.21420084110579254
Si	4.171789109167416	14.868573844434156	12.487319883914832	14	-0.7960062366913528	0.6529360527095848	-2.013787902963205
Si	2.7095195502698397	10.82093448556098	13.651565042236967	14	-0.09905954577466518	-0.6361207668052844	-0.2377974172919836
Si	3.9328983396548995	12.34940641130394	14.892510046290623	14	-1.0261430456819551	1.7777753469844682	-1.166867867390684
Si	0.025561198588067997	13.700331194152284	13.594933906140708	14	0.2591813002396552	0.07671046988981003	-0.8329908153900869
Si	1.2036675790307518	15.213040651598725	14.998866082373842	14	0.2753473820506182	-0.287549076568445	0.4205544116639612
Si	5.474175239642867	-0.043501162504932	0.142008464374524	14	-1.0476814520593678	0.23885388446803243	-0.5265919372775083
Si	6.7901138428598635	1.374617235195072	1.304336126553372	14	-0.2187532401856468	0.179238950962419	0.9415408251224827
Si	8.241837172969355	2.466598788862956	-0.10308979265270399	14	-0.24467769512869983	0.8158410286836351	-0.7922958746038471
Si	9.313977516544405	3.8999759058726835	1.3064973722064	14	1.764502529990268	0.3760470359090059	-0.609164013076192
Si	7.982796443985	-0.061229876846688	2.663905892013828	14	0.8537028685176037	-0.5135592615202097	0.2234766177692908
Si	9.462502217812643	1.247737490391744	3.904249647276792	14	1.1864483770668037	-0.9373725491774585	0.7168683862687909
Si	5.554693827693648	2.826324315337248	2.793661881032088	14	0.14998568596137019	0.3200589035679933	-0.7848545815862745
Si	6.958853503469208	4.086866779974	4.2469289580366	14	-0.7180814337588368	0.38134582686329904	0.129441526011259
Si	5.669158597467552	0.15055594718274	5.308848072169884	14	-1.7297707537730476	-1.1629541308723548	-0.47686393216999223
Si	6.76518639299712	1.5495968832537599	6.686406551449152	14	1.104446058207065	-0.06621778907828571	1.0912999967051478
Si	8.361778181728752	2.584508551707852	5.3545754801971075	14	-0.8703692874238677	1.483501801561708	1.115957668056964
Si	9.180744034520519	4.359118732386264	6.96327349457916	14	1.6345028170140046	-1.0730770306380664	-1.6773968241805672
Si	7.985412688722875	0.10182229520205599	8.16910231926294	14	0.095548701460003	-0.4882305316798349	-0.15166538906702295
Si	9.385883621917705	1.3420523006938079	9.557645776447824	14	1.4678478839305185	0.31826118672814574	-0.836865728218082
Si	5.684417316777275	3.038678888222736	8.13522113740908	14	-0.36504219091770806	0.53957396226	-0.8256757636437336
Si	7.020587129302692	4.463508522424248	9.582134477193035	14	-0.7695978997270478	0.2641810716452151	0.11705034103133734
Si	5.50126393515864	-0.25445823820124397	10.756844614466676	14	-0.934237086239538	2.0864591663950627	0.9225352145959479
Si	6.843072486342708	1.411000912015596	11.9197572754689	14	0.3850129943814262	-1.1098898595014146	0.9429119955897176
Si	8.246078414438832	2.869029229443696	10.731397165649819	14	-1.5220542402846684	-0.45784469478526085	0.07914119285947802
Si	9.435283522558343	4.20987903255612	12.021888320049959	14	-0.1300963865363007	0.30492074966402544	2.528247822677063
Si	8.378775647541287	0.22176330396145197	13.70895992679708	14	-0.6650552147466349	-0.5464249294960665	-1.7578541658534288
Si	9.937310012818847	1.566058100144868	14.757115318613712	14	-1.2971527159469514	-1.4865945841513142	1.6574010809952435
Si	5.512882661789579	2.661890896066644	13.393938060409104	14	-0.6106277433349522	0.5574472580035413	-0.22469377902784893
Si	6.9047573622742435	3.881678442674868	14.76618280037604	14	-0.5111236534504334	1.1709916632136694	1.110319234089879
Si	5.2155082599067795	5.4135791115215035	-0.084126080794932	14	1.1176330002835726	-0.9132838634329913	0.06248505837449473
Si	6.666500341487051	6.588532998304884	1.415957152046976	14	0.4778201262385553	0.5558349178572765	0.3913091170894049
Si	7.998331412739096	8.123179911627924	0.109183530396204	14	0.33810292070479253	-0.07438927600678034	0.09329667031008529
Si	9.486243420061319	9.529354583350669	1.477885777488252	14	0.4969807744158949	-1.0308103731696199	-0.8233046903174929
Si	8.334819485951506	5.243084454442032	2.7883968916217037	14	-1.3812926517698614	1.7806375014268574	0.3677958447155867
Si	9.53808081579936	6.933926053606464	4.146942909141252	14	0.5634045090303245	-1.5743502653859482	-0.8839159271346638
Si	5.4522215337989515	8.251018404502895	2.849545518631812	14	0.7285792567810014	-0.4988080589669241	-0.8078209798584973
Si	7.080744508306523	9.429417284357267	4.335117530660532	14	-0.3267599753638952	-2.0775497722396854	-1.5299521616070995
Si	5.6245199372505	5.695337294813627	5.695386044715576	14	0.20421081138435723	-1.2581472484665812	-1.647542948976732
Si	7.210662996997944	6.593034239251415	7.117940683492847	14	-4.08537811018132	-0.20965204157338663	-2.9475765884349094
Si	8.23653968362434	7.933526543082888	5.6821423213530355	14	0.56895115453748	1.5810652211505791	0.10207313832041076
Si	9.619119402804252	9.51541211139354	6.860557451174723	14	-1.2204982961531208	-0.9589878316039434	-0.4860399499470688
Si	8.840193469479107	6.177555074915928	9.175072795927237	14	1.1672075104034754	-2.023171151829086	3.0297678835356794
Si	8.059350040010676	7.6884120360883434	10.741065896202839	14	-1.0491040446330056	0.6245675050491991	0.6324960225249396
Si	5.733297218463804	8.156947343710572	8.147278613157553	14	-1.2705098941774493	0.7369456334927633	-0.10897372788915617
Si	6.769622634074388	9.471065950588176	9.814720259386943	14	0.5168924424572496	-0.23632160283821857	-1.2078669699362974
Si	5.348692992028716	5.600258736047712	10.922951780370827	14	0.3224652010371199	-0.5613517385427182	-0.48201796989476114
Si	6.6827178088684205	6.727291469216208	12.466178676436716	14	-0.09947786461025328	0.7649783947983377	-1.895124707564539
Si	9.39950109452851	9.088590469871484	11.901264812663293	14	0.12968860923252523	1.1529160214814327	1.6548461736386124
Si	8.144386118975303	5.5917437531741285	13.692596209709867	14	0.07924737950920015	-2.6371408178591667	-0.5737470372911521
Si	9.534700822597632	6.7467101801588285	14.958631163299428	14	0.44151354801274434	0.25453119915763533	1.9562666205197883
Si	5.439676559031	8.420505563608776	13.310965727293608	14	0.07934199618498158	-0.41410890773688197	1.3865850149608543
Si	6.823832525040563	9.55322578533787	14.835342661272936	14	0.26007681622266277	-0.4188235435624375	-0.4438933630970734
Si	5.588103760495344	10.692088494712415	0.12250850359532399	14	5.0707930478184045	-3.450943217134456	4.043909523804247
Si	7.1232544228051795	12.13583309086975	1.5754180813188838	14	-1.4483064550552651	-0.4559675307910208	-1.7903899610167109
Si	8.182703541906431	13.466087915292142	-0.023009953719455998	14	-0.026699643197077728	0.5557171612336138	-0.08473437537292815
Si	9.469619703497052	14.750566581785364	1.4816232699709317	14	-0.5182461294083076	1.1159489262988755	-0.9779466480136515
Si	8.292894570276228	10.751189625840707	2.9371328424650516	14	0.32548727823042195	0.530390488277495	0.4416076504674617
Si	9.551584538638954	12.179220503603473	4.291746367894128	14	-0.013304955810702278	0.11773965436766906	0.2547019205508932
Si	5.425490337564131	13.271413306846464	2.530103661133884	14	0.6752007963399392	1.0523168978410626	1.7741724570993451
Si	6.9679372351988516	14.729506624143829	4.158561635772191	14	-1.623654809447236	-0.13680620009029112	-0.29982713291428015
Si	5.465774006540496	10.618768642182625	5.103480985230275	14	-2.2622718624078524	1.4572001654681892	0.7922213125495627
Si	6.497451931498703	11.856902401890611	6.656295362012604	14	1.4746677407922113	0.46204999464689506	1.064664374030542
Si	8.02390886129448	13.38171808498747	5.774604635381076	14	1.1018569551496757	0.30125461058802633	-0.9818696405111333
Si	9.449307244352052	14.92656997778496	6.943789783767276	14	-0.02637157015822683	0.3802219967278623	-0.932585408181875
Si	8.147993611719455	10.643614842208788	8.18177729376942	14	-1.216054397717777	1.3090304511944397	0.8082241291726965
Si	9.414499814361179	12.26596282913628	9.468904704935147	14	-0.2932962682905719	-1.5213636413956768	0.949914658039673
Si	5.206197028634712	13.39874805073464	7.783880594069844	14	0.8847929311593664	0.8500817237847071	1.3294298579150265
Si	6.7169564900032315	14.721072891106823	9.370169903523133	14	0.7054169402833834	-0.5141989525238625	-0.6191419586026227
Si	5.404137880510908	11.044842785208143	10.884699357308964	14	-0.7570773881495227	-0.12959836343578804	-0.5800215627144415
Si	6.820452531838836	12.222607916337191	12.306197748210696	14	0.2648338752860007	0.43175954575969855	0.4838311133665296
Si	8.258330889795097	13.597517650943951	11.02828406851314	14	-0.4029479966526512	0.27040854584114576	-0.6905736921596366
Si	9.799152790698216	14.933102464645991	12.382036345674468	14	-2.64533390207235	1.4896891665146446	-0.9772763608566888
Si	8.312215781414952	10.750295877638328	13.457134183301028	14	-0.6271152133109338	-0.5711882732765408	-0.6620146255950278
Si	9.536910818152608	12.080908201341673	14.904421272333252	14	0.5958181766908992	0.982595977764075	-0.09671546905428619
Si	5.556497574065724	13.653417538510991	13.801422240825119	14	0.28545234017986426	-1.1998795741487251	-0.7304823889389751
Si	6.879651162771024	15.105709617476542	14.950278680099004	14	0.9840604793544316	-0.38766277552437084	0.7876851114332255
Si	10.77514207766449	0.0727186037391	0.229725787946292	14	0.5531506839030419	-0.5370103131452804	-1.0453499737550573
Si	12.267230326586928	1.4312158713567	1.3057661236771798	14	-0.19640159319547149	-0.959293536026509	1.695656299943195
Si	13.586532673038334	2.454736312722276	-0.176117145770808	14	1.315873962225078	0.9642483130889663	-0.16313843233711972
Si	14.689239205134779	4.041188121848724	1.3892259558121558	14	2.414926612802068	-1.8649844112280392	-2.4081617775942266
Si	13.755727332732528	0.058841131651236	2.751233216370012	14	-0.30927645918688834	0.47157696830017176	-1.2525972605225095
Si	14.957509915554622	1.45867831612074	4.1738041051146	14	0.03297493995196315	-0.30711467383370783	-0.15935607930064988
Si	10.762239603615589	2.660948397962316	2.644552180940472	14	0.8472079993683778	0.2730706682896271	-0.22740346692475294
Si	12.251776607669411	3.943655818018092	3.9586545378507596	14	-0.9884858658314705	1.134554472837595	0.18134057245110805
Si	10.96125295333464	-0.0065974867302959995	5.41741410380808	14	-0.9832994321796675	0.5452211379851732	0.44397281025146595
Si	12.129316853976036	1.6205442405554158	6.798921325145136	14	0.2500952711487839	-0.9032457540420691	-0.29554418567197743
Si	13.6056913845039	2.871352974769884	5.41879535102994	14	-0.022018174630152102	-0.2761472529157163	1.028313315682692
Si	14.72494038332803	4.247497706892659	7.074943269974711	14	-0.1553945202233657	0.6270326808301571	-2.041103068773926
Si	13.489877867442768	0.19659210458896798	8.267105872145736	14	-0.16013692398637885	0.024846647592847004	-0.4210982004391725
Si	15.054489720496512	1.5338181649899238	9.497650897117152	14	1.0991608941109685	-1.21642232288909	-1.3574209673144146
Si	10.743389641529028	3.023533918684224	8.092434973466052	14	-0.8921354937326451	-1.7560721327560345	0.17001099685787552
Si	11.935958492882952	4.24473521244894	9.519442103287908	14	1.9832997360768891	0.09795525603966158	-0.018692449898540565
Si	10.887640601393159	0.213085821414708	11.023701577730026	14	-0.4787380108378482	-1.2663269629321003	-1.7548416017498114
Si	12.505714846916545	1.396717190744832	11.984090896072944	14	-0.25306618334621495	0.9365505668066072	1.6222391588579625
Si	13.581803932549379	2.782221904041624	10.50430387240872	14	-1.236525024055732	1.5334735474535741	1.4238076780122342
Si	14.85141387894846	3.935888333641044	12.281432798021111	14	-0.25272705455448746	0.27139070807344234	-0.8137761740010242
Si	13.751096092047467	0.035636178323988	13.502276592504876	14	-0.6399085191629266	-0.5723689248395528	0.8957044450275428
Si	15.301911722849928	0.91519815923712	15.054749719973568	14	-2.029051526806796	2.4605195092231904	-1.937542803136342
Si	10.961707952419486	2.919826627273512	13.31172947575746	14	-0.04426903429177761	-0.8046806318204685	-2.1119329065754933
Si	12.265930329201648	3.918387118841712	14.72442038437392	14	0.5036995868385058	0.8435452027292949	2.3286529166739673
Si	10.959042957779664	5.2332532242158525	0.071272356647976	14	-1.369266563745401	-0.4918732736974208	-1.0264019559876942
Si	12.108630645582767	6.557820560077643	1.5042594744421198	14	0.6772360833113684	1.2961926652204083	-0.30490275192678445
Si	13.337940673038167	8.239724677218275	0.27779319126701996	14	0.8436907272904152	-0.9912032670443348	-0.7805448948486423
Si	14.932939964972832	9.459040974774334	1.637557956335268	14	-0.27354657988438646	0.4473293882469193	-2.480850267431729
Si	13.664045017135656	5.382785423457684	2.712639543994512	14	-2.1686900565177623	0.33215826809407817	0.873483153077099
Si	15.005073569888555	6.659691605181648	3.9452158148804277	14	0.0320035763620112	0.3999840264395845	1.8366942822799177
Si	10.960294205262995	8.15147110472508	2.742003234934524	14	-0.05944292655969553	0.034973974338378275	0.18671778211766574
Si	12.38665133639221	9.405156083154479	4.13066044189062	14	0.07998554384661465	-0.015107814861190111	-0.3537216141930961
Si	11.055145264486487	5.296238097532668	5.672928589884864	14	0.0666291659295094	-1.5689853970249272	-0.04886642771473439
Si	12.305206500204418	6.896616128648928	6.714307745330723	14	0.9417331438004298	-0.8477844411811549	-2.3468211181977296
Si	13.775958542040946	8.06437127991132	5.4715427449376755	14	-0.4304554811413195	-0.3897728816606164	-1.9465195602511067
Si	14.981511117280355	9.292332560079492	6.850563721275384	14	1.112222366247853	1.515083716651215	0.22238826888727214
Si	13.326793195459391	5.746768441368768	8.26099588443492	14	1.2808511368856168	-1.8823041479961524	1.5592941297416931
Si	14.887635056095823	6.794533833969815	9.67547428945614	14	-0.1782616738302307	-0.25827678538802706	-0.03646547253459618
Si	10.930881764421036	7.996153917118752	7.8414054783684835	14	0.6718041091014916	4.148814477524269	1.1052413010825866
Si	12.167341777495476	9.507888376526232	9.288920066943131	14	-0.5660725450210421	-0.2908058956774765	0.8236775005889144
Si	10.636481106557063	5.569156298604888	10.759818358485504	14	0.6201398045773721	1.2995950088905603	0.29725834158892017
Si	12.2244441626439	6.788878845343848	12.226686658133508	14	-0.5314443843482238	0.5450892402822496	-0.1819524955173033
Si	13.502162842733663	8.295738314556527	10.780667066551931	14	0.33650832118523666	-0.3020164290943862	1.0304239360400016
Si	14.965033650421931	9.550300791220991	12.27013907073649	14	-0.7258317736358912	-0.16931782686356361	-0.254056316005004
Si	13.58269768075176	5.36882670153324	13.636290072959927	14	0.5497730228439633	1.045659020614539	-0.5781541689204179
Si	14.83362016473744	6.813903795010488	15.088988401108379	14	-0.3955257298144477	0.31063168880113834	0.17119576218939977
Si	10.677788523474335	8.145442366850844	13.601125143688103	14	1.4321848533663406	-0.0782639317242435	-0.45476348216959545
Si	11.937160990464337	9.563479514714269	15.079774669640209	14	0.8010849410302413	-0.48766000340929416	-0.1756604865778369
Si	10.850606925879996	11.0105716041387	0.26667821362287597	14	-0.6662397229676271	-0.3191487322846609	-0.7225338168417372
Si	12.180146751740484	12.345295169572992	1.575726830697888	14	0.9952774405346415	0.38752187895282675	-1.5834699759565136
Si	13.784067275731632	13.730848632771732	-6.499986926399999e-05	14	-0.37153268918788984	-2.0536428636413526	0.35615927914712847
Si	15.210261907187688	15.3330629101947	0.8290733324623201	14	-0.1709327381151486	-0.079210612703122	1.9028981873894746
Si	13.52492904694338	10.87195938293322	2.6651083895952117	14	-1.228074315089469	-1.0016715223553176	0.4088090883404607
Si	14.90349502419624	12.138433085640312	3.7535312004208916	14	0.562407177276639	2.5537120497678094	1.808514453750031
Si	10.84108444503282	13.617830110088953	2.8871154430664037	14	0.27469252152557655	0.09563843303567617	1.135753122137848
Si	12.379127601524903	14.990091100023204	4.076564300695655	14	-0.2493283104317837	-1.123009438618534	0.45409885144433715
Si	10.941216743634012	10.632077365414426	5.448467791348956	14	-0.16424323629318738	1.1742199430536473	-0.7523300992864013
Si	12.079835703498816	12.09468817362564	6.799262574458772	14	-0.26605695008679514	0.507020426470009	0.1046856384362132
Si	13.478714139896676	13.333520681928215	5.501702684276172	14	1.022161946204238	1.1613065665832039	-1.5648366614803364
Si	14.736071610939492	14.853185125385902	6.84180498889206	14	1.1351005756075945	0.17460761894923627	0.28516643326826374
Si	13.544542757493792	10.804050769519655	7.94655901687032	14	0.9591462116916648	0.10285758255358793	1.3194565403781722
Si	14.851722628327463	12.270382820246232	9.459804723238188	14	0.8483747669626608	-0.9904944133075702	-0.030249311202074164
Si	10.793845790045207	13.537002772659168	8.209759737487571	14	0.6828302942669466	0.16160836756109961	-0.3297535132881437
Si	12.09111318081612	15.006617316783576	9.482619677349852	14	0.3588175449376296	0.026038869129799667	0.9243784399999623
Si	10.691844745202676	10.640137349203163	10.8647281474776	14	1.12891475331785	1.7034822303166615	-1.1806749600704112
Si	12.185736740497187	12.226215409081345	12.228685404113374	14	-0.5291954385246902	-0.287619781964749	-0.3711817333116897
Si	13.56721146189961	13.661688771874836	10.842644441895155	14	-0.6976730281696294	-0.5169747178274944	-0.5313137721979602
Si	15.02406978168096	14.962157406206998	12.059734493928923	14	0.5271118147732423	0.7821250961784053	0.2469222700731891
Si	13.352289394178195	10.760972106164939	13.616757612246095	14	1.0118448718860797	0.36549881922256633	-0.32208030657069375
Si	14.927073726771756	12.213605434444128	14.655910522169664	14	-0.9319932826266448	-0.4200484181369561	1.790533942914639
Si	10.948415479154999	13.668838757493877	13.6999411949367	14	1.0649158281308522	-2.1347638075973445	1.35702861664256
Si	12.27262531573584	14.962206156108948	15.1868132043507	14	-0.6814853490739772	1.2311606699157749	-1.7286710920276205
H	16.197229672072655	0.026315197071530398	15.948223297905926	1	-1.431650834791346	0.16056912679069574	-2.6190672330111853
H	3.0515992372356875	14.539645256017147	5.836396761096898	1	-10.391847460189275	11.98678225187886	-5.187298057411339
H	3.4973797156253204	14.373765589655418	6.124232432165205	1	12.126611557604582	-8.073262220617412	6.469694428594365
H	4.715589390407161	11.514429465715716	15.805046460881384	1	-2.6977625962081495	2.759667099001355	-1.3031228225003355
H	6.484934581675189	9.523548470028661	1.0420096541777206	1	0.1981208913230545	-0.0001822913671984988	0.0864698714640281
H	0.509834599555842	0.17338715126172	0.376641742450248	1	1.8290205613414037	0.18650232349183732	1.867274494736695
H	2.0644462227233196	14.34818164111311	14.183465472411205	1	1.2427141887823923	-1.3087609993568883	-1.1519300025911556
H	14.360677865979111	14.409481392819256	1.6857163594729656	1	-1.2347681877904746	-1.314298645995423	1.0305566050745214
H	8.601897448770357	7.766190879649646	3.341354029444015	1	-0.7550310454252169	0.6155478104755876	-0.8268664425174942
H	10.161717186462612	7.16229496928187	8.645951110164033	1	-1.0228466315509934	-1.2359244138529453	1.3393435258084536
H	11.932960373913149	4.3166884427274566	6.7055945128558845	1	-0.49592045058186573	0.2842955998963296	-0.3897733958816804
H	8.178931924492389	5.268967402382956	7.688832910241828	1	-0.4210094973056274	-0.9241154159257111	-0.7809246471044282
H	7.926821806568306	6.906418108933939	8.251757778015774	1	1.411893175958668	1.7558718436515948	1.9657532278195384
H	12.100877786176305	1.3420523006938079	9.557645776447824	1	0.23092485277122776	0.16046988212533803	-0.05926166363462509
