226
config_type=divacancy dft_energy=-23042.707708104062 dft_virial="-25.097500607226717 -17.25680976075408 -9.570016771805184 -17.25680976075408 -24.251062390846148 -0.9760364121900336 -9.570016771805184 -0.9760364121900336 -51.38973458207194" pbc="T T T" Lattice="16.3999889955 0.0 0.0 0.0 16.3999889955 0.0 0.0 0.0 16.3999889955" Properties=species:S:1:pos:R:3:Z:I:1:dft_force:R:3
Si	1.1393564354843713	1.331482306566654	1.2008727942064918	14	0.5444539201576409	0.40659973753885753	1.855276431760224
Si	2.4213763752405972	2.7107705810551903	-0.13315151065446448	14	-0.15921466850804175	-0.32903771756701444	-1.1683197705649717
Si	3.9282729641031193	3.9080681776606636	0.9785053434165075	14	2.0106982056999834	1.4974490194813832	1.5497972380206624
Si	2.4608675487417613	-0.1636554901860945	2.4204087758898627	14	2.2351945238392448	0.9950864074093545	0.18388236717060644
Si	4.131173627955445	1.3088995217198505	3.7851010601724044	14	-0.43426688766790694	-0.042087965648696	0.18880089164804972
Si	0.020778786057298496	2.4738563400261975	3.013760377747053	14	2.1307585397296176	2.7941523062183733	-2.5190255250042237
Si	1.7350040358009313	4.0279192972397775	4.043466486807511	14	-2.894533400127594	0.9703958259094405	-1.1154565596300672
Si	0.207328660881111	-0.23483144242656448	5.642809813637666	14	-7.437972177941067	-7.284792664951009	-7.604922788136371
Si	1.7115684515263618	1.5811721390231415	7.051290068538193	14	3.8546982837471013	7.736179514503653	6.083436505016922
Si	2.7402741612580948	2.6234078396761618	5.371406395751137	14	2.1068269485202116	-0.8192379730326148	-0.5007443583835276
Si	4.034184093036059	3.9675837377253327	6.841862209065658	14	-1.0949980174871168	-0.2547183756249421	0.20079946884558478
Si	2.9272176358177995	0.029519980191899997	8.39321916809498	14	-0.6210810862350783	-0.8462474344207703	-0.6847542523780134
Si	4.37059706730075	1.2630779524664235	9.724258674958756	14	-0.3419099563523358	0.5796333258110992	-1.07137521602666
Si	-0.2811450113498565	2.780158934495151	8.075518581274155	14	0.9136862414155944	-0.6356669667162783	0.4297731097893522
Si	1.072395280415745	4.085942458305857	9.548926392607866	14	2.127372651133515	-1.7373879103945182	-1.3206924707055672
Si	-0.042672771366291	-0.11666952171398699	11.06704057394331	14	-0.281351427194228	0.8440326842979948	0.4549095209517799
Si	1.2918107331865396	1.27427914495035	12.638110319745223	14	-0.23615885187145322	-0.2570488254871244	-2.118312847316909
Si	2.6256546381685455	2.3742100068895398	10.734891596817448	14	-1.0123940599824632	1.8909844566675043	1.9343497474392504
Si	3.877514998162047	3.9754721324321687	12.295973749321101	14	-0.05656971636443005	-0.8322716772320414	-0.5609678725184201
Si	2.4959635251921313	-0.21352785672141	13.939613446428103	14	1.0470204208815577	2.7279350313611515	0.07067814258767861
Si	4.008649310170065	1.4090542545153688	15.088153875749954	14	0.018337123143296098	-1.2214804583854175	-0.6079913319396725
Si	-0.2808170115699465	2.6046134522873188	13.76582276304279	14	1.1789268655632426	-0.3873565568807412	0.1284328813941649
Si	1.163251219450815	4.118578436406901	14.819210456212751	14	0.23296142529531705	0.2369330116833498	1.392709130722915
Si	-0.014989589941887	5.388642784185407	0.1054027292740785	14	-0.22298399398995045	-0.16640810697275202	-0.2821950068497686
Si	1.570954945878945	6.782641848802908	1.3075875226002105	14	-1.4416310943125648	0.4256194891446529	-1.1285188030985474
Si	2.69189419372137	8.362288788849469	-0.024829583339186997	14	0.14987204310621968	-0.8190945053557505	-1.0536415313020029
Si	4.00192531468191	9.684488701644668	1.3303507073259644	14	1.2251355417085399	-0.06208088061816746	-0.8587466058241383
Si	2.9090464480107854	5.41644076553278	2.456587151613936	14	0.3669957167399565	-0.8077348478302722	1.2873755737460246
Si	4.1873927902320185	6.886650579012369	3.792759855033303	14	-1.1975910333032616	-0.759598871136992	1.4800315807111042
Si	0.1549962959964705	8.263577255085554	2.4129303809079152	14	-0.2744593222730391	-0.6545211391394562	2.577218894378327
Si	1.2821675396571854	9.585219568254907	4.1540024126371815	14	1.1518490127735712	-0.3522311444390062	-1.0856651622855111
Si	0.0523651648626315	5.29982044378578	5.355941206128381	14	-0.18920044141480072	-0.5787072136747818	-1.5215356483415945
Si	1.214419185116775	6.776442652962609	6.515043228363334	14	0.5147041747192717	1.2687607712281523	1.6893966869307624
Si	2.811548513432538	8.087966172921739	5.35408800737189	14	-0.7966950358066205	0.19800544869417985	-0.8968997518908798
Si	4.135126025303361	9.50991081878757	6.6731063223019635	14	-0.6629687627793347	0.1325829024914159	0.1328600676449279
Si	2.4242299733258146	5.392513181588345	7.965130255345445	14	0.3745532237179999	-0.5090937658001765	0.3117807157687125
Si	3.8113902425321906	6.708317098675302	9.338563733762587	14	-5.867893546934013	-8.255042194967734	5.291690589841055
Si	-0.14791150075041448	8.147104533239512	8.121864950175437	14	0.47816362590932715	0.5819036118087898	-2.3724272703021487
Si	1.4563354227893954	9.284755369868352	9.290282166159836	14	-0.01410071290728811	0.8670263362866111	1.372530839059861
Si	-0.1527002975371005	5.407338771640278	10.791094359105026	14	-1.0145820706099093	0.2607139361209954	2.332657927431162
Si	1.1995115951198654	6.511254830905374	12.436997254693406	14	-0.5299508292677498	1.423580392301933	-1.3613992385762796
Si	2.5733058732949092	7.929165079478313	10.93336426364099	14	-0.6062002999736573	-0.07140190873530029	-0.845462218855997
Si	4.007386511017411	9.318047347529216	12.029506728122218	14	-0.19683173911553223	1.491298935555589	-0.004082143916799105
Si	2.7637097455326645	5.529239889843829	13.736876782465732	14	0.4207333605942435	-0.7960658863347803	0.1959912447863758
Si	4.204842378523231	7.124680019293056	14.88659801099526	14	-0.30149526604599214	-0.8190988762347948	0.9257382976037887
Si	-0.198275866955595	8.089770171711244	13.655828036849972	14	0.6548600108206517	0.03268157683493425	-0.15051327677306459
Si	1.2487771620623476	9.547122393818361	14.896011604678677	14	0.0031670875333584037	0.8975674679425222	0.49868258902730084
Si	-0.13707110802438902	11.166211307399099	0.029749580037837	14	1.427626283633718	-1.738994594109079	-0.4764846941352704
Si	1.2959107304354145	12.40578807563497	1.381436673046947	14	1.328464150756779	-1.1099109425650397	-0.642170834734125
Si	2.7306309677287413	13.541749713397273	-0.0597451599106065	14	-0.05072867929811765	0.012777879220071921	0.8023455539687099
Si	4.095602051824206	14.905818798097986	1.256731156725165	14	-0.019254236410992918	-0.7491043905517436	1.1789178666946223
Si	2.7337961656048724	10.995372622032974	2.6621282136945372	14	-1.4570908934920832	-0.1463761112024143	1.2021539739149285
Si	4.115823238255658	12.135729456846072	4.1226620336667805	14	1.1212019515784701	-0.3925982692969271	-1.6367396786425334
Si	0.008068794585786	13.726807189222495	2.5942158592641715	14	-1.4258715042527168	0.7248881779833969	1.8539481987518356
Si	1.556227755760986	14.92694198392419	4.011027308574412	14	-0.8061214792418793	-0.6208864535623431	0.9925669813061415
Si	0.076030348983138	11.017676607066855	5.5494118763082945	14	-0.9868136189312461	-0.7832936635464126	-1.4552836635625508
Si	1.3516870930091098	12.281820558817985	6.829873817109948	14	0.8579896724178866	1.0994218613009634	0.5904983026729809
Si	2.898747254921611	13.437708183209821	5.390364783029935	14	-1.32553051958649	2.1755664776964982	1.405593710813773
Si	4.118709636318865	15.027113116708703	6.832432215393245	14	0.29929131456556124	-0.2355561847844105	-0.18110300231952636
Si	2.7342553652967467	10.839277526773804	8.011657024125677	14	0.36631283116692526	-0.09311952115352708	0.7016744393793758
Si	4.193214786325422	12.195655016635628	9.399899692605757	14	0.15286506680940404	-0.5762955168844829	0.479794220903365
Si	0.012562391570553	13.548293309006477	8.345167200338166	14	0.3105491563203616	0.37118867529605404	-0.08009944381229721
Si	1.378189475225838	15.100011067793702	9.631992336870074	14	0.45826635605776517	-1.2594921936595507	0.21020971431732674
Si	0.25698782755948496	10.776186769108117	10.799179553679808	14	-1.3567655925683089	-0.14093179568700076	-0.06514255283339979
Si	1.3665946830060194	12.25943457383913	12.260615373046804	14	0.1279412860569526	-0.02586274841536952	-0.44058640743429894
Si	2.8957952569024217	13.511639333601535	10.968837439838255	14	-0.8303166087466008	0.9091937490896997	-0.3040923395298738
Si	3.8417794221408523	15.049777901500484	12.603801542766638	14	0.38611882677962195	-1.0266716649357777	-1.9908554432812084
Si	2.8254721040897173	10.834455930009128	13.470934560914705	14	-0.7871878596643089	-0.07278104962902772	0.723395908455583
Si	4.013044507220859	12.306338542366259	14.964743958558817	14	1.6338376720676824	-1.0859641818342443	-0.6672036303521506
Si	-0.013972790624165999	13.800508739768272	13.503242539235838	14	-0.5594992571595515	-0.4800963257784825	1.3608911881650185
Si	1.2777395426284004	14.967663156600016	15.289972140328578	14	-1.331052739593104	-1.05755115405182	-0.5960650028016335
Si	5.381098789247478	-0.07496434969843051	0.0180563878840455	14	1.5766732590427022	0.46247808368269977	-1.024858778574541
Si	7.066886458072914	1.266997549836348	1.178339209326675	14	-1.4983910724706855	0.5356106034089917	0.7759529007468579
Si	8.230400077347657	2.6433174263166985	-0.3472369670017215	14	-0.6968119649979119	0.21872830046404132	1.2108350539178765
Si	9.448230460175495	4.084302459406306	1.0597508889002143	14	-0.17276413643469007	-0.7864715497221157	1.2148662899493365
Si	8.153402129013784	0.0107091928140615	2.84113409358042	14	-1.0504219932201135	-1.4326340254657703	-0.4409335066525189
Si	9.396094895158802	1.3514082931961866	4.140816821484799	14	-0.42535929328625394	1.3541569491104866	1.0134556693691525
Si	5.575733858646072	2.8602072807821863	2.520711108586341	14	-0.7591831234067241	-1.087382146418306	-0.460919479637626
Si	6.559454398563148	4.3728274658041375	4.077447264006188	14	0.0938767116703107	-1.3714440328410342	0.09719935107553805
Si	5.439581150005431	0.1088467269631335	5.437088351678114	14	-1.1154573309616633	-0.7081713654128581	-0.47901620443348825
Si	6.896949772101542	1.3191659148310333	6.699215104782799	14	0.9440363399462185	-0.05835920566725312	-0.03300656454740097
Si	8.008787026051465	3.0730791379437763	5.39380878071899	14	0.3501107538814801	-1.9796366823272744	-0.006744009254748411
Si	9.586105167660664	4.079825262410535	6.7885458448412885	14	-0.5842057795124505	1.3653852231541055	-0.25244577563246323
Si	8.05272259657041	-0.255741428395827	8.206669293271169	14	1.2108893042401316	1.1933330257825643	-1.2678233462284263
Si	9.736837466518304	1.1318780405024234	9.294660963221634	14	-2.411515270263296	-0.7892647985419246	1.5730719118207708
Si	5.449306343479762	2.4905679288126117	7.943793869662298	14	0.5125956112462182	1.3629910098799836	2.0760441329642068
Si	6.959335330240425	3.9818681281404134	9.350060126048433	14	-0.8980019847416272	-0.4660084683977951	0.6811698744511949
Si	5.24373248142117	-0.3247197821109	11.111205744308192	14	1.34820946828392	0.4123860100618508	-0.25780215934592776
Si	6.7426914756098695	1.1552972247879973	12.192539018726483	14	0.8866148163892233	-0.050854920569336916	-0.1345030039445025
Si	8.226054080263848	2.449977956048749	10.822106738295519	14	0.20950008924896582	0.7677176504064236	-0.9136044802664137
Si	9.48859083309342	4.167138803822577	12.03231112624045	14	-0.10676643397180904	-0.5309838993853851	-0.21224885794673615
Si	8.301576029588126	0.0297659800268325	13.577550889374448	14	-0.9185114347699163	-0.6939932622354335	0.2288638547465971
Si	9.62926993869682	1.215599984324451	15.007515129859081	14	0.09818999795539111	1.3071126637361412	-1.2301468830880407
Si	5.446272345515594	2.5319451010482585	13.486317750592482	14	-1.4233808745290895	0.887910653470578	0.746560281837457
Si	6.53441161536702	3.8567034121267576	15.074049885213824	14	1.226007660633134	1.3713463308388687	-1.0958950761333164
Si	5.46527993276138	5.571141861727332	-0.009675993507345	14	-0.7250601849293147	-0.2915815981525652	-0.5620194545943606
Si	6.808586631393789	6.8400254102981615	1.601196525586647	14	0.014104826675800345	-0.1526403522044231	-2.015785908907492
Si	8.020381818271284	7.968082253364634	-0.1516178982633975	14	1.4313847253907104	0.5736385366466419	0.16504747803732966
Si	9.546531994214522	9.829382604419912	1.052059294061325	14	-0.9123060720797389	-2.3379816581070605	1.3227663242567989
Si	8.10082376429421	5.278270858245693	2.685432598057143	14	0.9448601220907938	1.1607802613241696	-0.12391827756251689
Si	9.470764045055313	6.804355434232949	3.9835409270179545	14	0.04401449486508295	-0.16204468413392872	0.13864891127324128
Si	5.430298756233978	8.340345603573487	2.6205214416129543	14	0.9534517276286005	0.8416780660458032	0.9082043877625067
Si	6.991134908902699	9.491132831387723	4.251057547512551	14	-1.1938924983002284	-1.126708230732099	-0.6117592867863493
Si	5.115468167487364	5.482499921206655	5.499031110114118	14	1.3068077306451718	1.4255215768186449	-0.1811102014144228
Si	6.6521471363657145	6.84651980594038	6.99575970579943	14	0.9560050923220397	-1.3687783108451048	-1.6443066987102615
Si	8.357893591798673	8.117305753234689	5.610551035283518	14	-1.9384180073873203	-0.5408294329878283	-0.576263378067981
Si	9.434536469364254	9.75405745496358	6.732966282135538	14	1.851335698636033	-0.718327488537975	0.33960881709080326
Si	8.310202423799758	5.645679811711879	8.218969285017792	14	-1.0778024651059666	-1.5907937694609553	-0.5014984635739271
Si	9.219434213699275	7.208992362718921	9.586498767396556	14	1.5758872721463328	0.08880854886323479	0.5949092909602269
Si	5.540162282514832	8.408225158025862	8.124259348568781	14	9.158730693345932	8.62945452211419	-4.859704272592119
Si	7.126844817840462	9.559258385675031	9.689703898145238	14	0.20173020897147836	-0.4548670977139974	-1.0753488592989493
Si	5.2929324484076705	5.158764138435484	10.862385111268464	14	1.0447591337524873	1.074267966622359	-1.464611119442984
Si	6.757484265683811	6.776590252863568	12.055287510823145	14	0.9231633356256603	-0.6976758563854817	-0.5214836652274382
Si	9.211234219201524	9.17310424478699	12.183896224525856	14	0.9594858547044561	-0.20529350383467157	0.06786612469903265
Si	8.147990132645269	5.246897679297302	13.56267609935553	14	-0.8037180099886049	0.5078670914519338	0.27769685809216954
Si	9.63714193341466	6.511582830685284	14.973337552792458	14	-1.0186089357623251	1.1220316472652816	0.03881571990774353
Si	5.515841098834506	8.286816039492177	13.298406676682044	14	0.3942908279291806	-0.4156304878653456	1.3048241228906776
Si	6.857048598875491	9.50492522213294	14.83367524650678	14	-0.5954008862974393	-0.8812165236590404	0.5908911675658995
Si	5.532470687675943	10.845771922416024	-0.1719538846178175	14	-0.33050633292588305	0.8791503834237693	0.6831959054434716
Si	7.0955208388590565	12.165921836586786	1.3185591152382	14	-3.1097158892446193	-1.1298830315814181	1.0504402480678865
Si	8.455965525991763	13.278939889744384	0.0743739500945925	14	-0.1494838062028773	3.844628806871274	-1.2710302858942473
Si	9.518389613098243	15.162872225613452	1.3401579007452735	14	-1.0973523786287764	-1.404064931590413	0.10642550540635744
Si	8.123685348953938	10.778810767347396	2.8148285112316382	14	2.1308235886942177	0.6075051359236323	-0.8996557196835464
Si	9.694443494964938	12.138730654832248	4.0769552643363225	14	-1.0068949799237308	0.6212008997429971	-0.9233463983244549
Si	5.557595470817049	13.393461012899962	2.723546172482685	14	-0.30009607053076764	1.560805682559408	-0.3341238781113313
Si	6.6625119294108694	14.977896749733207	4.24708875017564	14	1.1343526410699634	-0.8311990120924756	-1.4160722505460366
Si	5.523729493541341	10.856579515164057	5.392103181863458	14	0.4099681426187835	-0.23238061260349563	0.5624002352922747
Si	6.825413020103172	12.25738457521469	6.771539056252954	14	-0.040962335739535165	-1.4948154363019557	0.8700427570482089
Si	8.123439349119005	13.397397010258882	5.414997566501176	14	1.4836457834596364	1.6088467854663753	-1.2260210303807988
Si	9.542218797108706	14.778587683470896	6.762141862558533	14	-0.7368145071214357	0.5243699880598363	1.087066671795524
Si	8.362321588827458	11.0561345812613	8.2050948943276	14	-1.2672916416482198	0.24649495236898047	0.7749085177658137
Si	9.68204510328434	12.288954554031028	9.768965044960488	14	-0.7967755114031411	-0.680145546091648	-0.11913859277236159
Si	5.620489428614791	13.584242084884615	8.112713756315948	14	-1.2748589188264796	1.0969559141884098	0.7471284961132098
Si	6.812276628917776	14.922841986675314	9.691212697132825	14	-0.7903408061184065	-0.2851322375675058	-0.08812720595339554
Si	5.528469090361041	10.636803262635363	10.823828737140044	14	-1.0491251276966307	2.054331919867152	0.625695191842616
Si	6.584333181869322	12.286625755593667	12.341303318904664	14	1.4473813713610757	-0.7785836557104333	-0.8078348638272261
Si	8.239485671251163	13.635524850473542	10.965442642116187	14	-1.1250400976003871	-0.7230184701945852	0.8211812144335827
Si	9.546367994324568	14.932714780050606	12.364542103311289	14	0.6910313489066229	0.2637013033924755	-0.8801955377364096
Si	8.249309264659468	10.787191161724097	13.596886476400144	14	-0.7629407938321204	1.0708977617687088	-0.4534002821288529
Si	9.631631537112172	12.049875514454628	15.025981517468013	14	0.06916093333825923	0.7841431567441896	-1.0689015555981458
Si	5.431167955650739	13.833292317770276	13.650120840679536	14	-0.2439611280759746	-1.4400323810244964	0.7346969447797618
Si	7.025214086035348	14.905605598241044	14.881628814329623	14	-0.19028776185469137	0.267303421946003	1.8580485975164076
Si	10.852922317618061	0.1434507037436385	0.1767426814045035	14	1.4798384907015611	-0.7075139337824962	-1.0658221427562045
Si	12.161526639535994	1.5642637503687808	1.489151800769391	14	0.19625941107126726	-0.2421821803049641	-0.1566944710732326
Si	13.616041663546888	2.7194953752007964	0.1453531024671165	14	0.6520595629059465	-0.3110302101257613	-0.7772361394121438
Si	14.9965107372431	3.934176960141499	1.6264361086507213	14	0.7864034154311318	0.27970489134720516	-0.6920963007302282
Si	13.674064824612968	0.2312890448035365	2.6518946205613454	14	-0.9118090774213543	-0.10513095387766287	2.0992031070249086
Si	15.195147403956597	1.3066363232384715	4.305046311285736	14	-1.8304819776053758	-1.7203273410426756	1.3328807954757294
Si	10.581125299995639	2.6913857940625094	2.715444577918908	14	0.6692605146082691	1.3513750131540865	-0.16618107837298296
Si	12.014074338477453	4.177175597087823	4.001056115265148	14	1.5439320325643404	-0.9964457507921168	-0.21242549288223034
Si	10.750619186264133	0.060565159360381496	5.524237893200201	14	-0.20449466141170158	-0.3099009806691523	0.5716186763071336
Si	12.32882292727909	1.3259719102641658	6.727718285656978	14	-0.9832068723881424	0.14758015982383965	0.92388941576807
Si	13.5715320934131	2.6607342146299198	5.393677580807026	14	0.08070185378880791	1.3909754344055394	-0.8237865154544888
Si	14.876315217895081	4.202513580085871	6.686882313058184	14	-0.21860025941909794	-0.8265571385474803	-0.10009570121868486
Si	13.703273205013954	0.085017542952672	8.13198374338566	14	0.17997377286291733	-1.345392308184634	0.4393923861236222
Si	15.008007129528947	1.2986987285646494	9.651311523906772	14	0.39500945186616193	-0.004108369191064615	-0.7724081178419697
Si	10.828355134102804	2.673493406068419	8.155107727869316	14	1.2891491221958626	0.41370164465417053	-1.464469194429312
Si	12.093597885116633	4.157167610513313	9.40244169090006	14	0.5330207290200065	-0.5431411137811735	1.16127802731415
Si	10.941203458380839	-0.1672962877430955	10.804952349806223	14	-0.303453419857817	0.05981702238377707	0.9099247143322177
Si	12.000839547358085	1.4154010502566277	12.202051012343874	14	0.21267077632977247	0.45054326989710436	-0.4169818608216154
Si	13.48643255051545	2.6362490310596383	10.743895190775978	14	-0.4597172307899247	0.6530206420746179	1.047009622239213
Si	14.904605198912318	3.8182454379323096	12.30410814386287	14	-0.6144648609147413	1.0864714609139097	-1.873406066704184
Si	13.291141481557037	0.0853291427435865	13.57838728881322	14	1.484729761462611	0.26644595832173357	0.6130098724140693
Si	14.91283799338806	1.1431612329313274	15.154524631214743	14	-1.5234822321794788	0.23103772429478225	-0.3957062214079221
Si	10.683067631591667	2.8714904732110904	13.580798087195559	14	1.21280966280375	-0.6912714901435247	0.5025816702453054
Si	12.336809721919899	4.021211701740618	15.046399503767411	14	-0.10408811355981079	-0.8397769907720857	-1.0343739251433455
Si	11.072698570146757	5.330111223460468	-0.029618380125873	14	-0.730030131513161	0.7995893290655112	0.6110175229014867
Si	12.063733505155826	6.780575450189475	1.519327780521111	14	2.120183583547849	-0.2798702134192907	-1.3250114134223523
Si	13.575140090992111	8.17131091699687	0.07402955032568699	14	-0.18593693743193676	-0.16679068744439005	-0.31132948678502653
Si	15.086759876685337	9.618757545750704	1.316558316580749	14	-0.737080102301007	-0.4859815858563014	-0.9073140139901394
Si	13.666389629763072	5.484107120128213	2.7245793717894013	14	-1.017353979255561	-0.24987235631752705	0.5443109667018408
Si	15.143995838279631	6.7529414687320575	4.029952895875219	14	0.076397309261816	0.6553570054790364	-0.6856415408239965
Si	10.76396877730647	8.226070480252844	2.6016450542791336	14	-0.6207440143276068	1.6668920591740382	0.5171662651738455
Si	12.306092542531326	9.55904518581809	4.001777714780951	14	0.10804273065273055	-1.5947967233338938	0.07442707125498652
Si	10.894627489633617	5.593741046563131	5.403665174105286	14	-0.08627703856501699	-0.12522465617568412	0.9272156547207455
Si	12.217237402153707	6.961860928545732	6.899672170274795	14	0.5282096767449456	-0.503858481147291	-0.4886977015165059
Si	13.750816773111907	8.103546162467463	5.426838358555927	14	-0.7721479219835707	0.30241315064528507	-0.7569372629095747
Si	14.89625760451361	9.726620273374108	6.588187179283264	14	0.1779089181803064	-0.8465222855794943	1.9750086927510078
Si	13.587522082683714	5.4157519659949696	8.224168081529367	14	-0.3945358542661907	0.8192958229023182	-1.246983252055966
Si	14.957757563246734	6.842862608394384	9.400096492473704	14	-0.4516421603109357	-0.2652961600225634	1.3247620162062979
Si	10.847690721128496	8.428298744556354	8.147891732711296	14	-0.4550475893074718	0.07586071958150109	0.4645511659023352
Si	12.167955435222229	9.783315035331551	9.586908767121443	14	-0.2313208029905306	-0.39818168161016065	0.07968446741362531
Si	10.87304510411554	5.7120177671986765	10.719820006930584	14	-0.7461051961957907	-0.3882441024372563	0.5140392868834812
Si	12.328511327488174	6.839828610430216	12.217221002164711	14	-0.010454628452786118	0.8876609991439914	0.08720855002250665
Si	13.684085217889217	8.36053399002695	10.726281602594812	14	-0.6734336756534014	-0.9105608057884224	0.6716238746185492
Si	15.025833917567054	9.562407183562167	12.202477412057757	14	0.853064720177143	0.08312846298996367	-0.21277362054257837
Si	13.575402490816039	5.2764340594781975	13.527629322872148	14	0.4481295162225494	0.9604577325154721	0.6170092267395597
Si	14.93553557815783	6.694541107919082	15.046809503492298	14	-0.6004860183996281	-0.09017483423036149	0.49293693996836596
Si	10.994979022297082	8.154304128408537	13.892479878055036	14	-0.73317305065651	-0.7180390105210543	-1.6576080549735153
Si	12.237753788387078	9.668925112087939	15.094533471469203	14	1.5593527509429925	-0.42403825937276185	0.08346142112892282
Si	11.129081732313285	11.180118498067282	0.0415411721256015	14	0.16267023405832073	-1.1496052091606779	0.14314397470445617
Si	12.483458423517657	12.336202922327063	1.5032721912945164	14	-0.9230234674962442	0.7758444001023477	-0.22179794310576614
Si	13.499978941425734	13.851299505687336	0.121655118368619	14	0.834242172349403	-0.4780882925234468	-1.7460489357759692
Si	14.846516437890257	15.177468215819447	1.394261464441428	14	0.7490344564870356	-1.1695312753918254	0.5813348833119731
Si	13.747356375433858	10.858039114184658	2.7271377700726993	14	-0.11597921855496367	-0.19097450408570288	0.36769531449756887
Si	15.055763897483843	12.164495037544178	4.073642466559232	14	0.23963524337482545	2.0966461427840213	0.3666532455113129
Si	10.8258131358085	13.708258801668585	2.5356514985612413	14	0.6308895959209111	-0.5742592014709256	1.6899674723118354
Si	11.932861592971737	15.237311775664026	4.019391302962117	14	2.515913202014184	-0.7170573625098219	-0.45819179400348087
Si	11.06153017764082	10.839179126839833	5.455538339298052	14	-0.3175057959850863	0.8799224863514098	-0.15333017976181884
Si	12.143634251541902	12.580234758580103	6.6359111472601695	14	0.11222669034020755	-1.37873131664993	1.9491618851886232
Si	13.65743523577153	13.813349931151748	5.493651913723594	14	0.09244717711230836	0.18872530115163733	-2.1658636404393237
Si	15.136829043088598	14.921054387874804	6.939622543467834	14	-0.5105343561110555	0.49326758411253707	0.6282045906350805
Si	13.480725354345017	11.022809803622447	8.068220586171156	14	0.1168500519268978	0.30578027017255094	-0.5709872128405052
Si	14.991525140588468	12.06729230276785	9.524064009290688	14	0.6482548412531912	0.45706230743633974	0.7706548811241607
Si	10.896283888522163	13.633294451970155	8.439663936930238	14	0.6552001680545073	0.6517525729307208	-2.0483026778914053
Si	12.420203665962013	14.973124352935518	9.565063981779437	14	0.7122499097822089	-0.058546125024027874	-0.12442607086324611
Si	10.734842396850462	10.846050722228947	11.26321724230748	14	0.5179303976749934	-0.6792834544778023	-1.1038156231825647
Si	12.193506618077219	12.208283008162162	12.466599234830284	14	0.7995700457756101	0.7225214755362005	-0.5642102934376588
Si	13.735367983478147	13.532221319790887	11.005360215331233	14	-1.2078492293095884	-0.8791475552079172	-0.7794305778028902
Si	14.716300525265988	15.081331480327826	12.336038922437108	14	1.4134006150078706	0.08159505577702734	0.0789966967404857
Si	13.762378765353734	10.934955062573552	13.638575248426706	14	-0.2492138962450371	0.2842791448222806	1.1975846055399613
Si	15.048433102402853	12.521112798251327	15.155967830246347	14	-1.2570105628045436	0.5234518463500114	-1.825292458627189
Si	10.871929904863848	13.625324057318341	13.796457942486384	14	-0.09407802921687829	-0.062483772821834656	-0.23157148575924502
Si	12.180370226891823	15.109473861444103	15.02504671809527	14	-0.7905462374334864	-0.0611457696132296	1.2377884652100526
H	1.0791241959005986	0.5421852761901296	6.483658569422646	1	81.34674073920223	-55.020898203315305	149.54209778847465
H	5.866264583698053	6.0887861943845945	13.020036543470226	1	-0.7937297800408937	-0.7667987373650027	0.9172670197949647
H	2.27282035492266	14.111224571275914	14.24918455870386	1	-0.405237051719179	0.15793117273222382	0.4413662236778998
H	8.050820197846932	8.548894423635865	10.527792535782275	1	-0.7702090514616471	0.5510038109607183	-0.4781204313399486
H	10.048968617076259	10.14966126951083	13.100776969292871	1	0.5682363872584787	0.2500934713750598	0.7265074601140261
H	0.15875353347533955	0.6048709541276293	0.39812449285585844	1	0.12543934346991648	-0.12576973050355553	0.12575301831897456
H	10.15698878459402	6.330084152472086	8.649017996452292	1	0.4666095928216457	-0.43523028083136645	-0.39229822130606584
H	0.9621315944034002	0.6167625861482663	6.269817472911422	1	-79.7235438436125	54.71394473778517	-148.35600011017348
H	4.696528808598417	7.713688904064238	8.972297859529386	1	3.036088174633667	13.954169931350417	36.95000375994138
H	4.668948947104685	7.570131600392128	8.558986976863695	1	-5.218305330461793	-14.969706910476228	-34.92242059138292
H	13.951155758683136	14.314610674802507	2.403887426975796	1	0.2514047350883353	0.1821142180419406	-0.002443578496268734
H	15.774667255094982	0.11480484296519865	15.973159601905317	1	-0.9786267053708306	0.10308306849016492	-1.165098946930422
