224
config_type=interstitial dft_energy=-23333.472793216344 dft_virial="-51.76680436634913 -12.020785964955945 8.285242916085172 -12.020785964955945 -48.41439393787535 -2.953313948893559 8.285242916085174 -2.953313948893559 -57.84903471515153" pbc="T T T" Lattice="16.3199774331 0.0 0.0 0.0 16.3199774331 0.0 0.0 0.0 16.3199774331" Properties=species:S:1:pos:R:3:Z:I:1:dft_force:R:3
Si	-4.086865068774335	-1.790334164365936	1.7623617230456028	14	8.623818402141893	6.184631096649438	-12.272312753660456
Si	0.2280880046050056	0.208242912046356	-0.1728612009713952	14	-0.25464741311810607	-0.648163824124858	-0.23939407369579557
Si	1.4675739706715176	1.4464069599407867	1.3986873459264024	14	-0.18035918155040753	-0.31231576278583534	0.007595302226249441
Si	2.7788351974888035	2.753686112264396	0.009008627543071199	14	-0.6561653609916909	0.19888219560835033	-0.7280102711736527
Si	4.200941711031704	4.029157628570894	1.25058355072102	14	-0.19478385372803428	1.4045974075022158	0.3023735556233548
Si	2.8449311060928584	0.0027580761861938996	2.747353961020353	14	-0.275482622190458	0.4198357877269798	-0.14756216208659861
Si	4.18744508969453	1.4528370310494283	4.098370652864671	14	-0.6961072250296592	-1.0339761751503185	0.2763359720462152
Si	-0.0510325694333037	2.8038047629614464	2.619813337380677	14	0.1789108779235681	0.19252616614641227	0.3210153547470884
Si	1.4663989322963344	4.032046264576552	3.94432638587364	14	-1.779385116025413	-0.15569765354061119	0.7181979048298396
Si	0.0868059599666589	0.004406393906937	5.325094396578498	14	0.3721690377546265	-0.573693815411025	0.5120430807129184
Si	1.350804532137687	1.2608324965490068	6.892905668644116	14	-0.0024860017340511778	0.17225762868662092	-1.3193814641028236
Si	2.5800252323987793	2.6504785749774715	5.346914206406552	14	0.8673634081940825	-0.7639337547067616	0.7779753321916864
Si	4.029696187826186	3.926439690606962	6.667771579954501	14	0.9934810092474541	-0.09800179304595627	0.10184456705744958
Si	2.7487574790796	-0.030028758476904	8.170368222197451	14	0.25935562118036126	-0.0046573001769162296	0.6113764492041793
Si	4.078084920915328	1.4841387477661139	9.476243856461814	14	0.6105876340919579	-1.038636560653619	-0.2398830979276877
Si	-0.0046185536135673	2.610853669769905	8.142673220493482	14	-0.2836512809031005	-0.26301584671412404	1.2001086596327504
Si	1.3961087894919726	3.9682841127454305	9.472441301719902	14	-1.4779512993965724	1.7383446186841456	-0.7898098728697959
Si	0.062668713343104	-0.1000741016197692	10.876040960853668	14	0.024820936539645524	1.3366891166759327	0.7085788856061016
Si	1.255512183905816	1.6145516874340162	12.365287861556341	14	-0.3425074812287382	-0.9417732530434241	-0.6005240707583663
Si	2.6400337894202877	2.7179943216182063	10.781205571989924	14	0.6518178790058525	-0.6546368388788628	1.5118821763065666
Si	4.109892556932439	4.032209464350883	12.043506866507908	14	0.23580635333206093	-0.15896321440773128	1.024019569798045
Si	2.6649707149380646	0.0055814322821202	13.407187860840313	14	0.5706694242229348	0.5222380275283695	0.32773673827501953
Si	3.980426175955657	1.3715961833874564	14.908527864820915	14	0.826149618354237	-0.25072236373636797	-0.4169692624055467
Si	-0.1982550858572988	2.978265321721285	13.777749268436281	14	0.2677991310517275	-0.7053804305878374	-1.3701587372914923
Si	1.397185908002557	4.2075023419598105	14.950127487297884	14	0.2974763713200687	-0.7117377456024355	0.2635658061421036
Si	-0.0333417138958233	5.416975869526851	-0.0338802731511156	14	0.37016897492608336	1.5438556707363322	-0.9181954459260702
Si	1.2790129514094801	6.768547440603894	1.3293927217454597	14	0.7691335581062291	1.0812253776186795	-0.21064268845323966
Si	2.8123401111589574	8.21315920302704	-0.168258967335261	14	-2.039775864207666	-0.3118995008345034	0.8737376925037936
Si	4.074217086263682	9.417165538153993	1.293178691821411	14	0.6053688045131214	0.31813777367277873	0.49434487724167914
Si	2.6593403227236454	5.358974669729614	2.638124352060615	14	1.4797071072197017	0.8689245833444765	-0.6189992622573544
Si	3.8303639834583025	6.658469192817634	4.303414849334139	14	0.8352361616661721	0.20296099708823323	-1.3448665171466638
Si	0.0934971507142299	8.320120335123578	2.7347059785097008	14	-0.1327078582099751	-0.645766525524352	-0.06411565336853266
Si	1.3376995902589077	9.689921320993392	4.116649027589743	14	0.29126998018776323	-0.6807484702892227	0.2653486105710944
Si	0.0014524779915458998	5.262898962580954	5.437898080596085	14	-0.43220948919072444	0.24640830611969153	-1.3391170114297486
Si	1.2052956133441675	6.699089616648621	6.813460018499785	14	-0.25441318542344055	-0.6407793525348607	1.5333460206296947
Si	2.3966702859379008	8.060192054546594	5.544418573301929	14	1.4447169349178064	1.237466305713438	-1.1916162987603014
Si	3.9495650986296647	9.450344052275485	6.697261779176113	14	0.4210817453651236	0.29391281934634345	0.36291434415475354
Si	2.8041311625101084	5.25855784858375	8.04501447553381	14	-1.4869797357282724	0.6975038494395637	0.11114168389510505
Si	3.8633466578505975	6.741619477839279	9.419613534768958	14	1.3824527344903124	1.1162692860217658	0.8681401391112992
Si	-0.15455018629145698	8.209421928194859	8.121636769582215	14	0.11602806955604647	-0.9101419727317702	-0.41011289584830785
Si	1.2619259350370244	9.38277934570245	9.452596209161253	14	0.2549451471141792	1.5896789381941392	0.5321390970057278
Si	-0.0715304610892773	5.513883895524599	10.817174802252476	14	0.6459562730969788	-0.706397559852488	0.0834035712592195
Si	1.33334215628427	6.771713516225915	12.293104601369741	14	-0.8740981614696784	0.4214154748356788	-0.24800856207095168
Si	2.5491804750502203	8.202910257199054	10.947555101965513	14	0.9117903083525173	-0.8353626600479235	-0.8050267025965604
Si	4.130733168114507	9.517892438871085	12.102911584364392	14	-0.3596606103721061	-0.3915508009894988	0.20887582487723388
Si	2.7505200366423748	5.386881831140215	13.441035494036562	14	0.22143181770817705	-0.2636920474133229	0.5889016462691689
Si	3.9883413650107102	6.738632921969022	14.929319516070684	14	0.9102381320707439	-0.036795602457703185	-1.2191109277223688
Si	0.024316766375319	8.298545324957018	13.59881703585977	14	-0.24042637248183502	-0.8244195215843093	0.04015500866900867
Si	1.418042839162059	9.678562616699955	14.87970678467406	14	-0.06996903174038176	-0.7926671422120765	0.37105343515621425
Si	0.1122651247622949	11.00387534408714	-0.0095145468434973	14	-0.4819999721575201	-0.3760619483198627	-0.08523214136290881
Si	1.5690679103279663	12.189358504827522	1.3249210479287905	14	-0.6226337767379156	0.364155416692789	0.5445184549011767
Si	2.7694022505324716	13.633399068040513	-0.0084047883780465	14	0.20816619980887302	-0.31276416355366915	-0.8363710475544854
Si	4.065616458156439	15.010331884048592	1.258074420362813	14	0.7208314880092672	0.2410148984896169	0.5371735783331096
Si	2.8451759057543544	10.794473713643033	2.7140612070568295	14	-0.4002298241081907	-0.027721657561836588	0.057579903644716234
Si	4.095041377468318	12.20618440156105	4.055693911877114	14	-0.041657048397039174	0.0432897002753332	-0.41567831042430037
Si	0.1401559661954628	13.577470505377278	2.631629001042241	14	0.5278155262993668	0.5837298679176911	-0.5837388667863116
Si	1.501601123619531	14.889564051043653	4.039635054082944	14	-0.49057357995808587	0.49497428382405134	0.06761955569883046
Si	-0.0233538877067661	11.019085563054789	5.466980280381869	14	-0.48063111568507333	-0.06147795642059273	-0.42940647017069905
Si	1.3643011534748608	12.32515703704835	6.822533925952588	14	0.05975737274034964	-0.5589048176095333	0.5343960132557537
Si	2.7934742172462936	13.50809428130917	5.401406611055674	14	-0.5195059710151801	0.659293367724183	0.41737652548825815
Si	4.046179365033617	14.982082003111895	6.751444104254006	14	0.13132306088454335	0.25862285616411895	-0.5088731649637078
Si	2.71422440683116	10.78334348903366	8.163122152217154	14	-0.06825924670248329	0.778942582013126	0.07496314671423739
Si	4.277776164786739	12.274532467050873	9.39545996816797	14	-1.1107540079995162	-1.418373389807569	0.7193268771759166
Si	-0.0920936326549833	13.679437724379286	8.169225823777134	14	0.4869097548768748	0.40039283218548805	0.19772314133002758
Si	1.4057375761775017	14.92204080613552	9.584167867226904	14	0.17860903015898272	-0.2319466100254546	-1.1742777929233508
Si	0.075398295740922	10.967840833914856	10.848492838946594	14	-0.3584120816286422	-0.4168913579143463	-0.02516392198935328
Si	1.5280231670837199	12.256711051693928	12.235152361504802	14	-0.37595473322801254	-0.5042171503394516	-0.24832018003575362
Si	2.8126338707527534	13.533732965856569	10.781205571989924	14	0.3925170223688104	0.09843142474495302	0.033123549839467706
Si	4.092397541124155	14.982147283021627	12.091765039777584	14	1.0843351295033985	0.43327495523539383	0.025730079380849886
Si	2.8975140733823066	10.870328968752082	13.573472110906168	14	-0.603281581214225	0.05428477506641446	-0.7212243529021858
Si	4.11547398921456	12.210035916235261	14.941331019461444	14	0.022610814406446234	0.5334490751663432	0.7828360067994263
Si	0.0417628222513029	13.497208856361292	13.570354995216446	14	0.40886179599952377	0.8944068081724641	0.1926742618128528
Si	1.5200753380738004	14.92081680782804	14.835642845604688	14	-1.2905220924368217	0.2035698348280443	0.25983821764895304
Si	5.456160135343724	0.1379201292871281	0.0225542088125442	14	-0.03702083128374816	-0.6224414580599686	-0.9438905582745661
Si	6.880861525298489	1.4155622025922276	1.362881315438181	14	-0.7380090426531766	0.5266474731524236	-0.16421058325562146
Si	8.312955865030446	2.727084549048443	0.0704207026238265	14	-0.4902707037513723	0.47598744236635376	-0.4660580907304739
Si	9.67663685936285	4.160631366771947	1.3739952200701222	14	0.06380969183543503	-0.857511446828339	-0.8332273570795407
Si	8.085700179274529	0.0508367297041065	2.72285767489327	14	0.13874172817529865	-0.14338283038869795	0.8745576179903889
Si	9.55692982489106	1.3378301500783727	4.023315076649844	14	-0.023530498779463203	0.8313123978370943	-0.568260041427424
Si	5.439709598091159	2.7405485304307504	2.7043345005067017	14	1.4123791148641758	0.5233608292216781	0.15144993044119454
Si	7.012449503341573	4.0395534541957785	4.122393659646193	14	-1.6236686934159648	-0.5945048560933677	0.2673116494830274
Si	5.50893894236237	-0.005516152372387799	5.433083687253321	14	-0.35558566555020343	0.09939430368734846	-0.1350048837029954
Si	6.858731635899204	1.320596253909019	6.819939049540726	14	-0.031121430126668397	0.39749571071074524	-0.026684473675688856
Si	8.314261463225096	2.6666027126813745	5.49172136617045	14	-0.7107627824650352	-0.6047869633791718	-0.17626418210700767
Si	9.635037236885877	3.9958322346525033	6.773720873450187	14	-0.9163977290862226	0.7557039036874996	1.0795703571241004
Si	8.13998042421702	-0.0355285908718587	8.182347085633348	14	1.087811263896239	0.513598085210544	-0.10772931291420451
Si	9.557696863830417	1.3291316021065303	9.609757591842005	14	0.009246723173380551	-0.25330015393034844	-1.1789394639793112
Si	5.545414091925348	2.770985288343482	8.14851577241453	14	-1.1887662285129172	-0.6769818009952058	-0.8343378174673125
Si	6.718004470493583	4.063331661315805	9.586060984609144	14	1.5587760520196834	0.13529490438310812	-0.4607374453809595
Si	5.647071231356128	0.2128941056147895	10.784436927521677	14	-0.9640503379793149	-1.2300059865164963	0.31226331223730436
Si	6.998495922636272	1.4219922737008692	12.284765092901425	14	-0.10447737890528123	0.1709376232152569	-0.29901337808045325
Si	8.320968973950098	2.82151193847636	10.816342483403387	14	-1.1505801722980777	-0.5798490415474595	0.5270747908566321
Si	9.65816264490858	3.9524374146578904	12.276866223823808	14	-0.08019148938275851	1.2861442714082054	0.01847621994111611
Si	8.236757890395303	-0.07471285668873179	13.644937292085714	14	0.2550058251997347	1.265160709558881	-0.1455649274739076
Si	9.621246855954908	1.2962468475788336	15.062800611496007	14	-0.3523018498353103	0.3753597794569303	-0.5223560412625643
Si	5.507698624077454	2.7232983142839635	13.592876564074125	14	-0.47862976730386997	0.11415964731989485	-0.10827644412633203
Si	6.895614784898011	4.114543750500872	14.960147953441808	14	-0.06219812302076621	-0.2215369759157711	0.1262168457187293
Si	5.51194181821006	5.5740393323430055	-0.07735669303289401	14	-0.1364110212025844	-1.2626333130291756	0.41535435115396174
Si	6.746809230663005	6.620100925872417	1.5960121930700146	14	0.3010666627891235	0.2075216237051119	-0.1319799782938412
Si	7.935001507657283	7.979946725508041	0.1081851304040199	14	1.1564492344123798	1.0193458145470797	0.593990635029338
Si	9.524583629618656	9.513730844625645	1.4504869542990617	14	-1.5806823835684092	-0.8245956422987393	-0.22741812222507782
Si	8.34166270533527	5.267680715968853	2.7844982296580887	14	-0.5312726345128378	1.834495730120659	0.04333109507098759
Si	9.630141243655947	6.808808824931352	4.063331661315805	14	-1.0479933271347017	-0.22279656041211163	1.0432581224665851
Si	5.257529690005465	8.018200752611227	2.778476157985275	14	-0.21775565132142932	-0.15649932417943335	0.7220723034367708
Si	6.515767310142609	9.488875518995034	4.146579866202048	14	0.8677670717293458	-0.23191961341959308	0.2706818543366776
Si	5.471925233544098	5.338917417464334	5.471729393814902	14	-0.19786069546465548	0.19301956125734868	-0.4237515811295654
Si	6.6912233875258655	6.740020120050835	6.909225646077216	14	0.25879126356258875	0.11952502990197987	-0.5737912603026586
Si	8.041848399911789	8.1390828254582	5.558943353217388	14	0.21635825557992885	-0.2522948517501706	-1.1299835617994358
Si	9.464150753183887	9.449625973268429	6.893150468305612	14	0.3691420754612162	-0.46870941453661064	-0.01303061887304248
Si	8.094056007720276	5.411639236906228	8.181743246468322	14	0.6727582462857985	-0.8237158100581846	-0.25158805489766184
Si	9.532090819237883	6.678412205240883	9.509324450718708	14	0.5272889639298004	-0.07687424929870346	0.4017403484837776
Si	5.41170451681596	8.234440453599802	8.133599313040678	14	-1.52191025838674	-1.0405124390951987	-0.1486831640061832
Si	6.838445903949861	9.42279593036841	9.422518490752049	14	0.5725848976864452	0.6627368490794573	0.5380400408259997
Si	5.439660638158861	5.458151172590563	10.787488763301667	14	-0.882511846519331	0.914167295220994	0.2332930978816162
Si	6.8345780692982165	6.68234531980226	12.243524509927983	14	0.051855851870470565	0.6840834509999868	-1.1473220676363862
Si	8.235566532042688	8.115206698473573	10.805440738478076	14	-0.6771445519619712	-0.45429322700654035	0.3721824075022913
Si	9.428279442785932	9.497623026899175	12.242855390853224	14	0.48450937094998464	0.4600067372489734	0.6261759885374837
Si	8.237916608793052	5.404050447399836	13.515242431424868	14	0.49204553775387067	-0.2066086242059273	0.7015109170810144
Si	9.42320392980424	6.909845805219674	14.987483915642251	14	0.04968326787494544	-1.342213650677335	-0.011944326875279914
Si	5.375914806305172	8.038078485124743	13.430199029020985	14	0.03105998070951686	0.2602315967629356	1.1168192454497456
Si	6.6268247565748535	9.327993181459533	15.058459497498802	14	0.07678734593888246	1.009976449649928	-0.6067014084005541
Si	5.407265482954157	10.933487281418179	0.0680706258734601	14	0.6660646306953251	-0.3885086691746996	0.020356469261740402
Si	6.78379029952641	12.416891630199803	1.4201970761832283	14	0.838359026188024	-1.6488436711581944	-1.1318530124777153
Si	8.098641921378977	13.722130785344275	-0.13524365298809968	14	0.6690046896289144	-0.4454671366635361	0.86429787932087
Si	9.41078442697765	15.143339700128356	1.3727222618303403	14	-0.11044877101132514	-1.5502350972566836	-0.6626908262942267
Si	7.98120336377039	10.756007526833217	2.7528048334830086	14	-0.012218149591875685	0.47453193964461804	-0.30645518531908983
Si	9.357548660590878	12.055240930282308	4.140606754461533	14	0.29960601785674734	-0.4058029520001436	0.5472988481943849
Si	5.3163468886743575	13.559485890246002	2.6547380890875107	14	-0.1965337480089271	1.2209526104631911	0.3258297494590657
Si	6.719424308530263	14.913521777915442	3.960026204164282	14	0.10147432789134826	0.07536629602843661	0.48242780408279273
Si	5.345151648843778	11.03625417931441	5.530334432777163	14	0.19084723437235557	-1.5719321408323492	-0.18854043867911868
Si	6.868295142675001	12.318939125646338	6.69376930400543	14	-0.800646053352092	0.06129232261647804	1.3293347270181812
Si	8.156055601988623	13.636075544339539	5.361243146592815	14	0.5162895182596748	0.8255284393088891	-0.6838579650634099
Si	9.497117107598749	15.14888849245561	6.6020673508088406	14	-0.172432463848391	-1.579189599819531	1.4653935067919053
Si	8.134953871167625	10.92637177125735	8.124982364956	14	-0.26374706906717416	-0.5711319660700295	-0.18172495269647018
Si	9.476211216506949	12.171422849628547	9.493526712563467	14	0.7756999039833553	0.5816642419034841	0.5232561852351482
Si	5.418069308014869	13.73167797214264	8.086157138642657	14	0.8522108561003219	-0.7928170376522411	-0.6858382303809878
Si	6.836601746499921	14.890592209621936	9.448565174735277	14	-0.27259449958433574	0.6536130247403799	0.9384830095652307
Si	5.5749858910341255	10.780307973231103	10.828484546613614	14	-0.27259835624231593	0.9048125856241674	-0.2845074589747098
Si	6.821783206990666	12.108117657165552	12.353455877917344	14	-0.5936311945055813	0.7299694534276056	-1.1110157465211075
Si	8.090400332775262	13.471700731633357	10.846746601361254	14	0.1625326799236928	0.1937993775009496	0.7126062649795816
Si	9.430906959152663	14.86007385182204	12.289057246966332	14	0.8038542785705729	-0.748260810896203	-0.6020075985280918
Si	8.068564202969775	10.832482941084724	13.726667739070677	14	0.9475129885601226	-1.0003612870841703	0.584320450809729
Si	9.585783544992783	12.31531609065619	14.912363059517693	14	0.044173389173868094	0.17008761579641593	-0.15556421317449548
Si	5.42076210429133	13.539395998025856	13.589890008203867	14	-0.11309675238054565	0.8184231897566598	-0.7563423091384924
Si	6.754822339582657	15.028496018931632	14.827189097294342	14	-0.9972638765049879	-0.01912388137126141	1.0054160801435816
Si	10.964642118337967	-0.014361580141128	0.111465445868073	14	0.5463125721935761	0.3266216498976713	-0.05359417617742268
Si	12.330820069217634	1.5114747099665566	1.347899576154595	14	0.48405428530831834	-0.8467647408111841	0.052652637409184445
Si	13.66350942640458	2.819439301342356	-0.057772720113174005	14	-0.4986887596800692	-0.5273825521634538	-0.34633714260309884
Si	14.948430209644842	4.188620128069713	1.235944530963529	14	-0.44208561894647724	-0.33569713745673	1.4531529885837442
Si	13.963519571557256	0.1178465570444151	2.612469347535782	14	-1.7739611122420287	-0.35644878560617715	-0.5489957777056826
Si	15.072625237910733	1.3846358453565033	4.055595992012516	14	0.6700009929404717	0.7362591483722837	0.4556260880045051
Si	10.965800836735717	2.7909446207441633	2.700189226238694	14	0.0993930181346884	-0.25283169854101745	0.8580536929403583
Si	12.42671625661453	4.074184446308816	4.099659931081885	14	-0.4187029587229226	0.3607620718912576	-0.5786156823253846
Si	10.903638042693041	0.0169401365755578	5.286057010558523	14	0.6356877926693715	-0.3872346864885662	-0.2653439825815181
Si	12.219109823688065	1.2295797397646202	6.800599876282503	14	0.021904531775001557	1.5858449059407342	-0.7487395507068145
Si	13.705239608701017	2.6488139372792956	5.410366278666445	14	-0.8433544267145399	-0.41054175621570854	0.346323515744902
Si	14.990290951760745	3.924872972773384	6.814618736897535	14	0.21742963516683453	0.2394778917292324	-0.06809855261997404
Si	13.63943745969076	0.0314649164910168	8.078943708617224	14	-0.13853552552862275	-0.9810373737190016	0.6504639349442625
Si	14.91735697261222	1.1808156471945175	9.604877918589509	14	1.1527090475031605	0.4542960552223925	-1.1771150076441341
Si	10.928607608165683	2.7026861827859587	8.18304884466297	14	-0.1297055785276382	-0.8054437358794884	0.0304912522127001
Si	12.269228474385116	4.049312800700772	9.522641552304117	14	-0.7525000493480631	-0.32138302280786957	0.4564534696965288
Si	10.80077322493221	-0.0959941072614942	10.977143221051723	14	0.3098636996420101	0.3147364584447548	-0.3655947214510079
Si	12.175013244663829	1.3395927076411474	12.241647712523177	14	-0.14906471603569318	0.2805371581393371	-0.47335565896065024
Si	13.531333929173902	2.558841901690615	10.730515722082714	14	-0.03761424239163833	0.8207263859024486	1.5635706492206956
Si	14.799461455635507	4.123079098698383	12.112817810666284	14	0.14116268094475004	0.29397041210551483	0.6278626336275008
Si	13.588404890257454	0.0231090880452696	13.464258821923863	14	0.4004491393919993	-0.33480779212649076	0.08614591219368944
Si	14.830583652600428	1.3327872770515445	14.851114184211267	14	1.2384888342992608	0.7117953383616068	0.9707256987220155
Si	10.974727864391623	2.7302669446478975	13.709107443352663	14	-0.3943790168416617	-1.0130003266169543	-0.30474205784427516
Si	12.295699477781604	4.144458269135745	14.899372357480944	14	0.07109389031794655	0.5041096781370695	0.5508508301941695
Si	10.886094066952458	5.466735480720373	-0.0896293160625852	14	0.33845130547567265	1.0550484401331879	0.2997538564126559
Si	12.249693461397694	6.948866871262216	1.3508698120474194	14	-0.2629094029538699	-1.241927430554427	-0.35362931151210275
Si	13.708601524052236	8.217092317588417	0.121910231425257	14	-0.1429794239639667	0.339552766994824	-0.7545775024467427
Si	15.047051833273066	9.666975432722454	1.4067983747106532	14	0.3971059311442108	-0.44350049820415477	-0.8235193776117254
Si	13.653913279673917	5.614137516896132	2.695635952534859	14	0.27821185048779523	-0.4430233010567352	0.37354894997995
Si	15.092780410040612	6.952196146658569	4.131483887076431	14	-0.13301561951679683	-0.9918187896579783	-0.3027381383577517
Si	10.925310972724198	8.191290433266685	2.752200994317984	14	-0.20181402700491516	0.12755407759573828	-0.2081695422457892
Si	12.322431600817021	9.461914916275553	4.066448777005527	14	-0.2889876099950678	0.8968190191838269	0.26591142552567476
Si	10.919288901051383	5.331018548386714	5.435091044477593	14	0.26886948219650514	0.520197084125236	-0.7149950789325311
Si	12.274385587253974	6.620427325421079	6.787756054042652	14	0.3369932316486166	0.6310130089762782	0.38330937999629616
Si	13.607091264418354	8.143489219365136	5.469199797312771	14	0.03703651502620107	-0.31286469377168696	0.3731547995343713
Si	14.876149029593643	9.608892633038051	6.79116692932617	14	-0.024696752152682373	0.5642282911748999	-0.047699660120451196
Si	13.626316197834546	5.197961772374649	8.170531421971782	14	0.5464161877379781	2.067020324622083	-0.2273466454971777
Si	14.867907440989928	6.8821671234931365	9.527782345195543	14	-0.029356623434918752	-0.9396070968111992	-0.6793320483683531
Si	10.94197366968339	8.023798504870781	8.198226423675752	14	-0.06751876837028065	0.5763356261274772	-0.12921809695893813
Si	12.254491534763027	9.583368188332683	9.533037377929002	14	-0.8345391350138801	0.27947117787360376	-0.5807656405940924
Si	10.98233297387545	5.419456506096683	10.975380663488947	14	-0.12736870090215563	0.28456325196015697	-0.24356003564603151
Si	12.268249275739128	6.989976894416195	12.274222387479645	14	-0.6432396432157104	-0.2528211570092049	-0.855997065794772
Si	13.615055413405708	8.31249890566232	10.827489027990195	14	0.00042937458846472915	-0.24494406163986718	1.1035166036338315
Si	14.949344128381098	9.639068271311853	12.272900469307563	14	0.830647767111836	-0.061299778821906466	-0.7000489865959783
Si	13.513708353546155	5.6629995293308335	13.618596848508691	14	0.43911136431212994	-1.5815719860091804	-1.0333809642687042
Si	14.900808515495058	6.863252269648173	14.919086890220129	14	1.3892468802988036	0.5959125362561487	0.8722737051345013
Si	10.837395254292087	8.167120546688265	13.67408477178123	14	-0.17406100195817278	0.8083871372499939	-0.5720863603648685
Si	12.306666502616647	9.463938593477257	14.967736742948201	14	0.05692889977765474	0.5166350748147028	0.25274813761811266
Si	10.826134469863248	10.783865728311518	0.0592578380595861	14	-0.9677681562722492	-0.2133688314241927	-1.9883172481091582
Si	12.147285603004992	12.062176920691376	1.3230932104562834	14	0.23961853119024448	0.043521871085742576	2.0258612993255563
Si	13.61864580844099	13.709417522923891	-0.013039661969046901	14	2.2138474076976515	1.197338550760823	-1.8606407859001808
Si	15.278795512823086	15.10555895237073	1.2198040732821933	14	-0.18190210185302838	-0.44341282351273775	-0.2360056139943724
Si	13.651856962517348	10.94717974248455	2.689646520816912	14	-0.24963632884913745	-0.27877209433705546	0.5901653445340217
Si	15.003167413955461	12.37707088526304	3.8958234129424665	14	0.2317465780315471	-0.8590643944417086	1.050463130905236
Si	10.543048141308695	13.361051284636938	2.6243666110845116	14	-3.74803109444065	-1.8011124986438563	0.377351614748449
Si	12.488405771311648	15.012078121633932	4.05409455408867	14	0.9861122213999097	1.690033549718563	1.4610889622649132
Si	10.837166774608024	10.717214940474738	5.492798484681034	14	0.018281844378912917	0.21375783965913103	-0.7387366654587784
Si	12.09910902962248	12.216678147050533	6.744606033709537	14	0.20655437388367218	0.854108074716059	0.19004299262821323
Si	13.637381142534187	13.496947736722362	5.353001557989099	14	-0.2961926184337188	0.3544890891311603	0.8560618576488397
Si	14.973709854688714	15.045631995236388	6.709616002092971	14	-0.09405797459538114	-0.5763186568323642	-0.4582054208616777
Si	13.525018097907294	11.050876879094469	8.155272243071835	14	0.4361862177893975	-0.6073171881247296	0.3587488964255816
Si	14.905247549356861	12.393586702425337	9.602070882471015	14	0.786771597712977	-1.2104537589988984	-0.8616624963677182
Si	10.802992741863113	13.673839972119733	8.203758896025574	14	-0.11088894424213448	0.09718906665425746	-1.0526835374597157
Si	12.239803555073236	15.03848384512069	9.487439360980922	14	0.21862417069857532	-0.6241882670144773	0.5773530125026598
Si	10.881410233429158	10.913952268430759	10.985384809655438	14	-0.5731104316138834	-0.683757434845392	-0.826046517030899
Si	12.330754789307901	12.161157583823128	12.247751384083156	14	0.8176318035391184	0.46691838257059554	0.28802833060012056
Si	13.68430107765435	13.660555510489191	10.980570416312673	14	-1.3462137763344213	0.5514871787609061	-0.5453851745045987
Si	15.066799005967118	14.9702010595406	12.254018255417465	14	-0.14317842751574614	-0.3832738987428781	0.6834884972289046
Si	13.747638910072212	10.94491126562135	13.741845318083461	14	-1.4795320149473994	-0.7261271936371761	-0.5935306642875635
Si	14.95898923504406	12.344186130735343	15.022147547710155	14	0.9712874852344677	-0.12310040896017778	0.27937501853463015
Si	11.180245340206652	13.698434178111414	13.496588697218835	14	-2.7342491518063707	-1.341436919760118	-0.09525636678510215
Si	12.21997478249202	15.095065206881246	14.84212187664563	14	0.8386145940568469	0.07089180143978291	1.5174169947292493
H	11.681067911680394	14.334121779096808	2.720414574271535	1	-7.0332879138657205	-1.967063205980154	13.213840466145808
H	14.572432617565909	14.777215694396448	-0.8791669763075568	1	0.34782889790984867	-0.07713701626242259	0.31101144105692424
H	12.095934794011743	10.58588645007284	1.0602779258713841	1	0.34794639742297945	-2.266229564827156	0.10567937064245045
H	-4.137479846785351	-2.8867069843261075	0.7711450456778679	1	-1.3471074925437045	-0.07941424424447774	-2.041846375321981
H	14.954799896836983	15.03848384512069	9.487439360980922	1	0.12817911329906628	0.03959733592506855	-0.02082106799309116
H	15.141712598378275	4.074184446308816	4.099659931081885	1	0.12866093843606202	0.0026474671481564772	0.11485101754048266
H	9.434420650294008	14.913521777915442	3.960026204164282	1	0.5898053897892009	-0.3681264888597577	-0.318856140499228
