227
config_type=divacancy dft_energy=-23061.68905180628 dft_virial="-72.5517490228865 25.08321374161624 51.53931937298841 25.083213741616238 -77.52449115845592 -31.66830565468972 51.5393193729884 -31.66830565468972 -77.8597322013033" pbc="T T T" Lattice="16.3199774331 0.0 0.0 0.0 16.3199774331 0.0 0.0 0.0 16.3199774331" Properties=species:S:1:pos:R:3:Z:I:1:dft_force:R:3
Si	1.090843611605837	1.6430463680322087	1.1903954739477471	14	1.100887134222916	-1.8587795627589259	-1.2092941904995116
Si	2.7273130287325067	2.734901818238898	-0.0952433882995716	14	1.9703891878222979	-0.700444165483685	2.240289169031118
Si	4.181814697480111	4.260346428888187	1.2964100473531646	14	-0.9940458810862907	-1.293112995267935	-0.40020231328126504
Si	2.432003037080562	0.2906098381512117	2.553750068731488	14	1.485255552500581	-0.8721312658997652	-0.31873221322279693
Si	4.075114685022503	1.3386135089951612	3.929801605958181	14	0.07979836737930787	0.7348252429352371	0.14473806000294795
Si	0.0725096597352633	2.6490097770084926	2.872854587480892	14	0.1486412549894648	2.0951921827254774	0.050693969376295646
Si	1.4488059966234526	4.060443025310146	4.179562540594343	14	8.03119893757979	-8.143207341078316	-9.046690408141435
Si	-0.011260784428839	0.17206152207717332	5.305951063049473	14	0.4115979662812254	-1.571701512685132	0.8037241806413734
Si	1.5228660542148602	1.3428403831503342	6.814618736897535	14	-0.8537550619556028	0.06336257662026128	-2.197359680611138
Si	2.843576547965911	2.777692799068486	5.425723377430993	14	0.8795707591436135	-0.23942852650708552	1.0652369591853388
Si	4.299579654637361	4.17212063088485	6.833664150561963	14	-0.9472113979060691	0.39969169176468367	-0.9040834201553735
Si	2.607312234666922	0.1168183984661298	8.29175621434485	14	1.5393762910475701	-1.8390617560587101	0.4992734290298709
Si	4.095237217197515	1.41446876410421	9.507300773517002	14	-0.5703284956574832	0.14739941111983323	0.6058413736709646
Si	0.1518247500601293	2.6434283447263724	8.021236268413784	14	-0.7121023283368325	0.3602560783642524	1.618791049513112
Si	1.5342084385308647	3.9547385314759578	9.465146271807306	14	-0.8934220748348473	-0.0883987146752032	1.1049011438487313
Si	0.0988664232897198	0.0194697330776883	11.081607396600996	14	-0.656965488967321	-0.653389852798591	-1.2877123885429638
Si	1.45316343059809	1.325998166439375	12.492600005511955	14	-1.8265710693028987	-0.4484802149882176	0.397423205540717
Si	2.6259822888503885	2.5282582639809856	11.084447072674354	14	1.903076622098693	2.2851045632034275	-1.5667256525590492
Si	4.038639535459525	4.210146178303972	12.41339915502912	14	0.0024268663116877717	-0.34928979995275683	-1.7587543098260128
Si	2.9506192799496134	0.0483887330891415	13.709352243014159	14	-0.3251774600393441	-0.6868106224130678	1.331207777243909
Si	4.374880030513684	1.506954076217588	15.092046011056123	14	-1.367255188053449	-0.7221592067965917	-0.014699523336350596
Si	-0.0269606027194812	2.8628830812692683	13.634329306754198	14	1.3046739703399808	-1.066735399365921	0.7177158225823117
Si	1.591181479749817	4.086293869564177	15.043314558440885	14	-2.6879371172272037	2.1317229613352056	-1.8469144259275065
Si	-0.0488783324121345	5.351043160697127	0.024904285562910602	14	1.0253637436594183	0.1301259542474824	0.21009941389909234
Si	1.3002942019822423	6.744377554025473	1.4922334565729316	14	-0.32410016691020205	-0.2165261487573345	0.06955996888394621
Si	2.6307314022834207	8.193379390378123	0.2270598460267203	14	-0.5471934328762588	-0.3838030322177645	-0.2213685685173014
Si	4.131859246557392	9.515917721601681	1.2910570947551079	14	0.8650373292109445	0.008395944422943552	1.1959691800673122
Si	2.755122270278509	5.361341066457413	2.780891514645374	14	-0.030875118236998213	1.2698529767681512	-0.010114214108398512
Si	3.985191609366122	7.044355059223284	3.982955772457787	14	-0.12720492149326215	-0.4386899601501577	1.6355711112745261
Si	-0.1109595265676469	8.12318716743836	2.8380603955935233	14	0.3499392611566262	0.1635981459683622	-0.6814853490739772
Si	1.0998685591263413	9.554693987982725	4.227445354383058	14	0.3180290159177364	0.7142530579371363	0.22032058598880905
Si	-0.20889571114368002	5.581448602097633	5.74510533579676	14	-10.218588643090987	8.118002538514371	9.673257204687582
Si	1.3307799198272734	6.863937708700363	7.091307634298312	14	0.0908332943028514	-0.06385674306279374	-0.6567384603675519
Si	2.563297255529852	8.358113242587836	5.6059938481570155	14	0.0282896147270573	-0.8809131332312629	-0.27295368299756034
Si	3.8411351685641484	9.735845737490136	7.015060699730869	14	1.0399938471521248	0.6372050019187909	-0.9084866951266589
Si	2.85999444526361	5.398061015681889	8.261580576071047	14	-0.057596872939829215	0.4064033050923982	-0.27630460456130934
Si	3.9454524643165234	6.935876169225469	9.68122277302155	14	0.79061180061915	-0.28659185405775384	0.39507732904661386
Si	-0.3556939081544145	8.219295514541885	8.208295849751975	14	1.898075565140473	0.8921691752123392	-0.8915212566716617
Si	1.2284863012766025	9.595918250978738	9.45974435927695	14	-0.36458324861806163	-0.08149426844847754	1.1628417735698642
Si	0.1105515271318194	5.437310561408494	10.782951809575264	14	-0.6657753813468084	-0.5545658202712515	-0.3310506359221584
Si	1.2424725219367694	6.766719603131387	12.354598276337661	14	-0.38262803708645693	0.056508009836746496	-0.4053200984210198
Si	2.453692287089152	8.202812337334453	11.068029175376656	14	1.5925354362048236	1.0495185068106134	-0.9112403489245375
Si	4.157759050743722	9.525040588986784	12.438205520727433	14	-0.026518123161475275	-0.5292180642515075	-1.6331421880785821
Si	2.755138590255942	5.649796667587457	13.633301148175912	14	-0.07689661791498875	-0.6828182100719419	0.9145861282776462
Si	3.9682677927679975	7.011910944086281	15.119447253166298	14	0.6015201169593916	-1.2481034826439548	0.04055738665161184
Si	-0.060237036705572095	8.101791677023565	13.730600853632055	14	-0.05435213802580233	-1.3160562535922762	0.7664205277724089
Si	1.194965067629015	9.409234029121507	15.169549583885916	14	0.5116394171776552	0.4407401595324437	-0.2712672950180752
Si	-0.13367693515452211	10.85782786603833	0.1562474639444994	14	-0.21214395684967408	-0.11699300538269805	-1.9251212791136423
Si	1.264814571042683	11.99797412946956	1.4111068487529914	14	1.2049780759985789	0.7040609393375373	1.4258018272985409
Si	2.640556028698147	13.50735988232468	0.3009893437986633	14	0.5649484577750734	0.3094206981953486	-1.3760925912598623
Si	4.068390854320066	15.179814849691335	1.3627670755961492	14	-1.1673761749124774	0.4647010613424998	-0.5442374330896845
Si	2.693073716077863	10.661498537518137	2.8291333679376174	14	-0.18451074531085063	1.0757882611981624	-0.185003626200723
Si	3.8790138361863735	12.40223629046488	4.035701939521567	14	0.5663728501224354	-0.28381891696997413	-1.0004895852396458
Si	-0.07347253840381619	13.499983252524919	2.592705854864298	14	-1.4358296522681826	0.31362728360964287	-0.4416888973955784
Si	1.2175845563512917	14.99020935187358	3.6786208332853385	14	0.5449933380538081	0.8114310688385171	2.673851830951836
Si	-0.18745126079658658	11.22483151855388	5.485421854881273	14	0.9774213711967451	-0.6649557129707452	-0.04853244113364715
Si	1.3047005958891795	12.582833160739565	6.956618860542938	14	-0.31797090893750113	-0.7364530097134229	-2.4372960004189523
Si	2.698051309194958	13.79669676223611	5.429476972240606	14	-0.9458682524868237	0.7441277590940649	-0.2125627899063262
Si	4.096216415843501	15.105004073138003	6.8567569186298	14	-0.5779860186324802	-0.34144870005790123	0.2527764197766343
Si	2.4900695167875315	11.24666764835937	8.31666049990776	14	1.131603872372193	-1.5333362504294783	0.2163885946227066
Si	4.049737120114033	12.547467769642036	9.532041859305584	14	0.3135694337399396	-1.3606528467018408	1.381321962370511
Si	-0.1579284216201087	13.777928788188046	8.108531827703436	14	-0.15110257411244252	0.7962810878500767	1.3320117618775194
Si	1.4992020869368654	14.765401662732627	9.589994099170521	14	-1.6225320077539276	1.5608974710193375	0.3053622084474949
Si	0.0812082077071056	10.898986849124606	11.12828253205966	14	-0.73664532839137	-0.18418421493519183	-1.614624059120748
Si	1.498320808155478	12.04234814811016	12.51663933227091	14	-0.8349795653552213	0.7127903561205041	0.004889213876793587
Si	2.64825905804657	13.542855833241672	11.201575550711713	14	0.9250443562778805	0.26035038182872644	-0.9276658552623035
Si	4.185421412492826	14.89860531854159	12.322039921358627	14	-1.0683582810439984	-0.5418622459949317	0.12179094502062637
Si	2.7537840321289946	10.649160634578712	13.819055131319457	14	-0.4885984568511481	0.07206679657109058	0.7060031522963772
Si	4.0006629479727005	12.053135653193438	15.164506710859087	14	-0.5127917865821454	1.5528542822463183	-0.27203682684039554
Si	-0.0118646235938637	13.514246912801449	13.696377860954843	14	-0.0030400749305430886	0.3662698937080788	-2.839796110524834
Si	1.2324194158379795	14.705703185282347	15.023893785295497	14	2.0461030972900183	1.405105972134541	1.5170410991314438
Si	5.6467774717623325	0.1280302229626695	0.0953739481190364	14	0.15937947635906322	0.009350852938846549	0.35417207184518606
Si	7.1155917607187655	1.5044407996928904	1.5057137579326723	14	-1.8266849692685811	0.16690355896794457	-0.9070954700379268
Si	8.45327503100024	2.8392354339687063	0.14237548312636442	14	-1.3018524393616504	-0.5280199291723185	-0.2752306538690835
Si	9.67521702132617	3.904848360462971	1.664800897950531	14	1.8563264711729723	0.9873486659483688	-0.7676217481779821
Si	8.183114124572702	0.0712693414503477	2.8709614700986523	14	-0.30944640924855016	-1.0581332522963016	-0.7101233485719145
Si	9.41078442697765	1.5974973110164266	3.9184592216421765	14	2.1055779055556836	-0.29101929741904886	1.6961952036182981
Si	5.489860888743076	2.9113697342230083	2.6378305924668193	14	0.2699298060305342	-0.8979474773088401	0.40445723547557816
Si	6.776886949072208	4.454652080206677	3.909760673670334	14	-1.51013691001525	-0.035403348926843	1.376039112269203
Si	5.43855087969341	-0.0460386563387751	5.408946440629766	14	-0.937952847648216	0.8856635074207685	-0.42234672918263644
Si	6.8333867109456	1.3903804774129547	6.532054647620842	14	0.7517947951587466	0.7963471652568044	-0.0014218212420418878
Si	8.198340663517785	3.161718188046762	5.165550297192513	14	-0.7448181008725248	-1.249221399237155	1.3620119329740712
Si	9.28126908606857	4.339579919325888	6.921204509513112	14	1.388905180401756	-1.2361007916779074	-1.173914752852146
Si	8.09638976449321	0.009579826753229699	8.005193730597046	14	0.7278449491015672	1.078264492731997	-0.46858882969709564
Si	9.307903289239388	1.5871994052561404	9.358413619394831	14	0.45854197854808504	-1.5715387617183665	0.5443677881294161
Si	5.484964895513146	2.6111311093862675	8.019702190535073	14	0.4680998054652035	0.7575661552708829	1.072973415093664
Si	6.696608980078789	4.090928743155177	9.65153673407074	14	-0.5317320910335483	0.3672008909445044	-1.128150106595638
Si	5.2425969106541785	-0.0705349424658582	10.85304611265043	14	2.559086431218515	0.05949717688195066	-0.5362166129329506
Si	6.786956375148431	1.1959932262073005	12.36300306471571	14	-1.1600166430440852	0.37497899875901636	-0.7659685274571268
Si	7.879791024001106	2.6701441477843573	10.927432569790499	14	1.8221783358634258	0.17446183727758388	0.8496659760544393
Si	9.43273479662517	4.176673904588684	12.323704559056802	14	0.5263795639780641	-1.8858790128332865	-1.5646919082508122
Si	8.263620573250185	-0.09760978502737111	13.59811527683015	14	-0.0072569447661179525	0.36482827495507175	0.81293850788772
Si	9.638186992530466	1.4301849023722855	15.112902942215625	14	-1.5159622633391097	-0.03319785478321998	-1.9341463730084263
Si	5.424156659597416	2.805502040614489	13.550542542612662	14	1.4898442041654494	-0.24718298015265214	0.7701874541769578
Si	6.884876239747031	3.9991778300262886	15.146962735118503	14	0.6619349213301032	-0.3411967317365267	-1.8494294811516752
Si	5.522223403992913	5.4450462307117835	-0.15213482963135821	14	-1.1424518799389618	1.0893169031717176	0.7335229780905822
Si	6.846067333411119	6.666873981195681	1.31702217885117	14	-1.3570443003850128	0.7943692139340145	-0.12202208738890769
Si	7.994846864904462	7.9128226583257	-0.1817719086498678	14	1.9555919624837812	1.1458511382827297	2.155246775240836
Si	9.427120724388184	9.430972239062395	1.4583858233766822	14	-0.11017160585781317	-0.12023619763353281	-1.3124525923755568
Si	8.276497035444901	5.552578562018478	2.635170436145224	14	0.9134232173413432	-0.7776570293530519	-0.33122984196297267
Si	9.62531053033575	6.732317090702412	4.018533323261946	14	-0.15410151135786326	1.5930915662855718	0.27288452026444837
Si	5.5819218814431935	8.173044698496481	2.7126250490427166	14	-0.39968577822244733	0.175488736742451	-0.762829464971758
Si	6.886720397196971	9.611144789923818	4.018255883645582	14	-0.829225945869794	0.4117200937839324	0.6466646126126797
Si	5.443528472810505	5.855036703786122	5.5697961382104	14	0.33989369556027565	-0.8324110311403934	-0.9443315028369713
Si	6.948279352074624	7.080373249418136	6.968532444069101	14	-1.0238899860899096	-0.39010583979957564	0.06776945113899509
Si	8.267423127992098	8.185921160691196	5.347077406180884	14	-0.29667881444975874	0.16820042449142728	0.032297967921168146
Si	9.483767366058474	9.652744412400791	6.663299906137833	14	1.2167156860061188	-0.6061861588943964	0.40922920694977294
Si	8.135182350851688	5.53642178435971	8.417126280985924	14	-0.9421308937934566	0.8362802875366844	0.27244588969683114
Si	9.62746476735692	6.84417421602888	9.677240698527873	14	-0.5115448005018737	-0.6747169143186874	1.035198992840581
Si	5.322956479534763	8.337239991450899	8.30871267089784	14	0.6123226159619939	0.5337306111988995	0.10970880690018651
Si	6.95188606708734	9.757583947431025	9.586615863841871	14	-1.452330749102361	-0.9836966679516306	-0.3353574944439385
Si	5.495915600370756	5.575475490357119	11.033626662947682	14	-1.3583573638720126	-0.0341723036995561	-0.029447126342187966
Si	6.73478140729481	6.941637121259353	12.531718991419096	14	1.1894959082027752	-0.8368418169386046	-0.1880300742730693
Si	8.051134467071224	8.274620238040095	11.028224750417325	14	0.5526598598974256	-0.5599214326531198	-0.15244443397902782
Si	8.338366069893784	5.409028040516931	13.790609410653564	14	-2.106211425906568	1.034700455519004	0.22127780849950018
Si	9.643539945128522	6.764940725591179	15.102637676410206	14	0.9274108016145448	-0.3694092133039796	-0.9309069906288822
Si	5.464401723947439	8.272563920883524	13.957203740290648	14	-0.34042771413527045	1.0317866218596803	-1.327043615067397
Si	7.082576446371604	10.07943022238919	14.728583793643551	14	-1.27899736994979	1.1611319885319658	-4.567228701119739
Si	5.594374024224648	10.920480259403998	0.0016972776530424	14	-30.063070359993386	25.17263675083592	39.31562917111908
Si	6.5449637497704245	12.321990961426327	1.328266643302576	14	2.4494339315248395	-0.07571442368878466	1.0212021525882267
Si	8.020518189406728	13.55511213629393	0.119462234810292	14	-0.46762055143352793	0.580984955877901	-1.6286831201218495
Si	9.313974320844501	15.021494748612833	1.293048132001946	14	1.305305176696077	-0.04765749399320077	0.6943683865016431
Si	8.104370233457995	10.994621916882572	2.549147835095354	14	-0.14313497583583565	-0.2998718701468507	0.7898399548020416
Si	9.655665688361315	12.25130913916357	3.830608783119799	14	-1.1348997722820908	-0.1822546003924207	0.7019747444807691
Si	5.378330162965271	13.751849464249952	2.5320608187228983	14	-1.3430382041535063	0.131838053280169	2.177767343850545
Si	6.706025607057688	15.02069506971861	4.015954766827515	14	0.3489473287241131	-0.6219596329229728	-0.553412936645697
Si	5.25550601280376	11.075977004386575	5.297170915190464	14	1.11488268892261	-1.284537073472581	1.2785196585813063
Si	6.882150803515703	12.365026741917411	6.617457089528254	14	-0.9008728809421045	-0.7867785396973414	-0.13606700731074856
Si	8.184599242519115	13.64976800540591	5.136288577654964	14	0.3487832922046876	-0.4165290891747373	0.5140832527844559
Si	9.398675003722289	14.967198183692908	6.631459630165853	14	0.41868676075940564	-1.043988573488039	1.4313788118484743
Si	8.174790936081822	10.954164692825918	8.023064105886291	14	-0.02906506009161396	0.5479405960822938	0.2124090378081814
Si	9.527455945646881	12.153079194993742	9.560650779745808	14	0.26908982592244185	-0.011648649763462885	0.17340742698579115
Si	5.500338314255126	13.608054143086907	8.081913944510049	14	-0.17824264765086162	0.6878310941146347	-0.622604723247798
Si	6.896430783769666	14.97774088911469	9.306532411135008	14	-1.651554901718291	-0.5429050863127839	2.401573320211347
Si	5.557996794526268	11.024585395449744	10.978236659539741	14	-0.7601172059695338	-0.04209105097508017	0.3215365177954824
Si	6.941816641011116	12.190533543202708	12.57501589154911	14	-1.8648483997566032	1.2122741015655631	-1.137191912675003
Si	8.033247771804545	13.486894630623572	10.90717947779602	14	1.3456296212056835	1.1619246603021673	-0.19652037826126229
Si	9.651455134183577	15.165322709730741	11.995248693238231	14	-1.5209574067550933	-2.1643788271169386	1.1045057078504925
Si	9.534963135266107	9.534049216529855	12.298457553967797	14	0.07575453293177899	-0.5872975336599285	0.5930236423184304
Si	9.047648609113741	11.936725254163136	14.862717688166203	14	5.390894888845244	4.447639650695287	-1.9611630334914785
Si	5.311499855376726	13.4897179867195	13.764628006580068	14	0.47964818212118066	-0.48627880563131054	-0.01450874732159561
Si	6.683601958064608	14.924864162231446	14.952722363709748	14	1.1741039862037088	0.15247065925329334	0.3722929650310577
Si	10.767676310697883	-0.1098171281473299	-0.15916873990502428	14	1.3314142370011168	-0.08016397855583292	2.5611114337686636
Si	13.513332994065195	0.21263298597585992	2.8100553143183236	14	0.319289885966737	-0.6468597595064789	-0.05441898676412618
Si	13.676630688260794	2.3287138999064725	0.1588586603337954	14	-0.22717952365136804	1.55819498221733	-0.7222093433503345
Si	15.101576877877054	3.9219190568579934	1.44921399605928	14	-1.0733539386810462	0.28049087824357444	-0.286960293450131
Si	14.865426804420098	-1.193773709276399	1.2042511347884488	14	-0.6593404189515417	-0.9923234976323234	1.3273300362000615
Si	14.982979601870715	1.6669877749265665	4.220852083500086	14	-1.327321294441973	-1.659078470106108	-0.25080103955916455
Si	11.435212347643972	2.1354037672114026	2.5794703531660534	14	-0.5236819602761648	0.3508365769133579	-0.7825099906448315
Si	12.075004422953791	4.029892027555383	4.045020646635867	14	0.25569076765702214	0.2018507938109933	-0.06615376855581404
Si	10.689895298251729	0.13051085953250072	5.587862353228841	14	0.15573827700466952	0.9863893865534217	-1.6654589250685878
Si	12.226943412855952	1.4107967691817624	6.799930757207745	14	-1.2033667642944421	-0.08975394428945324	-0.10651857941894678
Si	13.434850222589416	2.777839678865384	5.433671206440913	14	0.3173947242352559	0.5549288603424563	0.25917230137103464
Si	14.846299790868503	3.845786362132582	6.956700460430104	14	0.5397948202070006	1.043190245286133	-1.2008154564852591
Si	13.521966262127304	0.1585159408077003	8.176227094095934	14	0.0920867081464236	-0.9711674146160171	0.6196998884570948
Si	14.97911176721907	1.4056722962677692	9.457018923045622	14	0.6164991194440423	0.05266086494620893	1.8930436549184113
Si	10.74881041678522	2.7934905372237266	8.02374954493848	14	0.24104446620079864	0.46164427422737575	0.253361346236968
Si	12.264055041538823	3.863901537083323	9.548769836174511	14	0.5419422073703882	-0.1635657500413283	-0.5616751835919929
Si	10.92106777859159	0.0430357804910847	10.574349858025382	14	-0.27352318282597315	0.3245362263724992	-1.1110396578005848
Si	11.99660325136518	1.3837219266202496	12.099386469238842	14	0.12063908983720002	-1.1576201157751753	0.804223232184014
Si	13.560660928621184	2.666031513471216	11.216867369566527	14	1.21315547646931	0.23480079404135099	-2.9119912052514
Si	15.025835862610037	4.082360755002799	12.255176973815216	14	-0.19943961124175844	1.22284365842616	-0.6793168788469642
Si	13.377877181370465	-0.0082089486488493	13.43212478635809	14	-0.641479207403005	-0.9412978556697286	0.2649534316833876
Si	14.798612816808985	1.3244151286283643	14.645253988870145	14	1.2108257979387236	-0.18967866700434824	1.312716902002468
Si	10.802160423014024	2.672869584015685	13.578074344542303	14	-0.4976400058199809	0.40503727683580354	-0.23488306941159573
Si	12.252777937132551	3.854582829969023	14.923509604104499	14	0.4252747039212211	-0.7808950793932465	1.264721050549136
Si	11.072092849757498	5.280051258863143	-0.0078499091453211	14	-1.2676215144607947	0.09521702887370388	1.1076527407623538
Si	12.285401572021318	6.8029173130780025	1.2649451308621478	14	0.4702695612448765	0.03917438909990419	1.1292456545725533
Si	13.671489895369366	8.21810415618927	0.0091228673851029	14	-1.2842311119394834	-1.3107248096004174	-1.3116624917106754
Si	14.865965363675388	9.484860804546491	1.3753008182647701	14	0.776789795528566	-0.012580161220952535	1.3386691248829785
Si	13.610126780220911	5.299259872301901	2.7025229830116273	14	-0.466840478079395	0.415064844694913	-0.3060985730111853
Si	14.912640499134055	6.711182719926548	4.118411585152518	14	0.38654485893117047	-1.1635380288905603	-1.171048998862309
Si	11.026494832809417	8.234815813080763	2.8315487245977162	14	-1.301429749647018	-1.42328394385852	-1.7164280027141392
Si	12.30611162338392	9.610018711480935	4.010063254974166	14	-0.48295899444193535	0.22882066017721858	1.0737087512152268
Si	10.756040166788083	5.423585460387257	5.468236918644218	14	0.7330079856949564	0.019913210704546873	0.4741177345775421
Si	12.138913454581811	6.9161779564637165	6.747755789354125	14	0.6328351513166671	-1.2618969484654852	-0.10413079390812527
Si	13.567172599616992	8.078731548910595	5.192461939979695	14	-0.7176659431391009	1.2541944311473856	2.2938054407173407
Si	14.881518302169132	9.581279231221245	6.608791181511278	14	-0.12020354459596697	-0.42828366847739036	0.15583983566481535
Si	13.58332937727576	5.327183353689936	8.166337187771475	14	-1.4500530068992417	0.33735652883035355	-0.42580949382781186
Si	14.849922825858652	6.7066294462227125	9.417753057341585	14	0.7901461734456713	-0.7338289396236798	1.703436721752495
Si	10.794114674139506	8.153917684944886	8.20873648914267	14	0.28851915460573685	0.8766589823685459	-0.856570679391697
Si	12.451995901658401	9.133981289734841	9.575175559661266	14	-1.2291117560861489	1.6568074127768213	0.01694744071775606
Si	11.049750800651584	5.172616847421045	10.896081893141515	14	-1.4450918020734838	2.052383279145012	0.6929416801594929
Si	12.29015068545435	6.639081059627111	12.35779699191455	14	-0.9229093104200297	-1.1977255021115052	-0.46451671309104514
Si	13.648903046601957	7.8056330465451	11.043663449069037	14	1.0941955755166988	1.6317494203266583	-0.24514769318122295
Si	15.078027150441091	9.372954719287723	12.333871904997624	14	-1.6642561619998224	1.1113481904390026	-0.478873765198752
Si	13.517853627814162	5.247378664042076	13.68136348171639	14	0.7095181103795517	0.007602244210613839	-0.5887867178613583
Si	14.82638941840012	6.5722344320611334	14.957324597345883	14	0.8143078785812309	1.5480527430609416	0.7703700026546882
Si	10.932883442253154	8.03532040893855	13.524724338313497	14	-0.8198069586399636	0.808720352499485	0.8985835687650445
Si	12.148656481109372	9.46974850544344	14.949034048809867	14	0.5314263866109827	0.9434596410229091	0.3262652947002988
Si	10.655003186499762	10.938236394851213	0.0095471867983635	14	1.160235958327894	-1.1392901917267757	-0.12176137730944468
Si	12.348266125093618	12.267629116596671	1.2649451308621478	14	-2.1087743036896915	-1.0620942971525218	0.4057841829313066
Si	13.555438535842592	13.547082707396847	-0.0275970818393721	14	0.6670303378535726	2.0310886135519493	-0.989103702439902
Si	16.224146525612838	16.270723741206904	-0.1761251964580152	14	0.14919507107542468	1.3322534457776132	-0.729368843224819
Si	13.540587356378472	10.880692154422102	2.6576920050029016	14	0.6669465198201358	0.6219200379010426	-0.058598318462026885
Si	14.691260005254053	12.408144122295662	4.061340624068967	14	0.31007607294145434	0.5784529313586192	0.12899749612246944
Si	10.881083833880496	13.60423526836756	2.5162141206353583	14	-0.039396532599564986	1.0756705045744999	-0.47629237545732334
Si	11.832065238884665	15.067223325380377	4.071181570461126	14	1.2167051444743062	0.46525616298111966	0.09567854227867047
Si	10.940406951849814	11.011154054022303	5.350863640945363	14	0.13818971186306284	-0.49979047830975265	0.4595927892924296
Si	12.35869459067337	12.23241060529604	6.8191067306916375	14	-1.0405836587125668	-0.8046124975294845	0.7601675996338088
Si	13.31963118191173	13.824277524098049	5.544190093617866	14	0.6998435552808985	0.01733516340003439	-1.5225039266051623
Si	14.773675891291209	15.146048816382251	6.800175556869242	14	1.2273888584111177	0.5668243362166535	-1.0048715200367742
Si	13.661159349654215	10.745448501434002	8.226851664093411	14	0.04044580068071742	0.6539506108689153	0.3917474905464901
Si	15.018198113171346	12.406104125116526	9.61793390053599	14	1.9660525044788035	-3.419299852627797	-1.5898925970462434
Si	10.887105905553309	13.517723067994698	8.152644726705105	14	-1.6562420267169207	-0.4364800951274904	-1.36550066578298
Si	12.294736599113051	14.750436243426474	9.314382320280329	14	0.12975854329723324	2.516946786352884	0.8990880196288578
Si	10.942805988532479	10.668091808401108	10.897469091223329	14	0.9596105533124835	0.9022841606523337	-0.3730784377063629
Si	12.305801543812692	12.20065192921123	12.323737199011669	14	-0.8786940122294431	-0.24308360983020802	-0.7093288770279887
Si	13.599453514979663	13.497176216406427	10.709724070832944	14	-1.9127668609397992	1.675201614458225	3.1109297080662612
Si	14.847621709040585	14.908446264933747	12.246902745256634	14	0.7184344465192931	-0.05123801526203898	-0.48040254442211205
Si	13.716288233423226	10.947293982326583	13.741926917970625	14	-0.8500572982841658	-1.5310356253890096	-0.891767568561332
Si	15.016631395337768	12.350583561889119	14.985264398711351	14	-0.6766614412723154	-1.6628428254053367	1.7080132892223585
Si	10.53043279875291	13.429072950578098	13.538384159425004	14	1.2189888002196618	0.6784565870068427	-0.473057667854045
Si	12.066224275094784	14.835610205649823	14.932322391918373	14	0.36585928818845115	-0.6810454329536998	-1.1338829001279722
H	6.018027582405978	10.513742357832077	15.714236990704343	1	27.02972658317844	-26.444384889335552	-38.19585649698808
H	8.033900570901869	11.159845368415276	15.19878519145957	1	-3.274707060075438	-2.1561554038609767	2.425651978645066
H	14.3409908575984	-0.7244568542372555	3.666482034070599	1	0.4167064954418276	-0.5526812000715828	0.493649136142047
H	14.602556031911925	3.365009618939916	-0.7926009200091645	1	-0.2574314059587624	-0.3049739715441525	0.3718234811995986
H	3.756765781228251	0.910075381568105	12.743278122879858	1	0.6162715766232093	0.6158725410775223	-0.6639406405903507
H	0.7282316650175314	4.74725458760247	4.924848582029464	1	44.67549338985546	-61.19203382524981	-46.08260739524503
H	11.840882922691769	0.7195380130389192	0.8851727280029377	1	-0.9946500908365254	-0.8127685578260583	-0.8936820135827143
H	7.090640147221299	8.806426286670579	-1.145272368342969	1	-0.06419175808600902	-4.570573966251784	1.8461289532522012
H	0.5636903885415306	4.966885579901643	5.09463836324795	1	-42.74139715340077	60.74560046720697	45.61462354662977
H	10.518245039605869	3.0942824092954497	3.453600984437756	1	-0.5164499552316522	0.9414336100306325	1.0759741521128092
H	8.696209319076136	10.60589474240582	13.369385897112021	1	1.6377796907445334	-1.7169820759106313	-0.4750466749297116
H	9.965115308461298	12.828654452823375	15.61773533214468	1	1.169971705733167	1.292282014028463	1.2080271497977424
H	7.860099339230328	11.29268998472071	13.45057615284395	1	-0.7194955416849182	0.8567136328474972	-0.50179234091202
