220
config_type=vacancy dft_energy=-23063.16038123987 dft_virial="-171.68408366979367 -13.508839897940602 -115.94017302208312 -13.508839897940602 -77.32847592399361 -92.75213841766652 -115.94017302208312 -92.75213841766652 -77.62036961236743" pbc="T T T" Lattice="15.918711086032387 0.08183518677690399 -0.27230101156525083 0.042111686580722 16.379360397125026 -0.44356581782189597 -0.3516843269873604 -0.0723461262089984 16.265205087944015" Properties=species:S:1:pos:R:3:Z:I:1:dft_force:R:3
Si	11.555354454543249	15.083514543631058	14.238153879977128	14	0.3782946961798793	0.30801147536937545	0.8485940822464694
Si	1.3438070045925563	1.4706531362210138	1.2873136596041344	14	-0.15748354329598604	-1.0978141491442752	-1.5626231969102211
Si	2.616974640178932	2.739536365433525	-0.1950399977768691	14	0.400375862890375	-0.0367662918570535	-0.1886404546760725
Si	3.94637292025143	4.093808402763135	1.1821029044953528	14	0.20714135722826196	1.2111363874613976	-1.2929451020905294
Si	2.7402082418697087	0.01706279565541012	2.547448166027947	14	-1.0107269552928793	0.14907988555708204	0.0638839967791873
Si	3.89046070061658	1.4872144127356706	3.9205327435707074	14	0.20030838772943646	-0.4073096197177504	1.257106207922453
Si	0.09360098503140439	2.8428333871861615	2.549263187680198	14	-1.7711786620645644	-0.2563777669985657	0.5516617568121441
Si	1.3725766899049816	4.06190223266568	3.9829408301715064	14	0.6413357397261408	0.7454909591348075	-0.4425363337090993
Si	-0.11059691146804741	0.18224409512850376	5.205244872139949	14	0.4469558066439018	-0.9477078783433899	0.20505259126617367
Si	1.089910949430827	1.2924371154611007	6.909572493342664	14	-0.1563993081824796	0.377368841154094	-0.5426688017338622
Si	2.426061428474548	2.6632672450568555	5.489528210858566	14	0.9667960213507013	-0.19752645177303624	-0.28313011785470643
Si	3.8863339145440943	4.124816614780002	6.659701328301013	14	-1.3053653405605685	0.6807654395843357	-0.06504690771549029
Si	2.448344799566563	-0.16961058915428717	8.160746524451683	14	-1.20482252412671	-0.37974685646469897	-0.5517034087183306
Si	3.825842745547953	1.2142128664976213	9.22276982540811	14	1.4882136091714115	0.26178300171311303	-0.0014866130961096193
Si	-0.3208018927867455	2.7907120154057043	8.190231073555214	14	0.6551088938156421	-1.069789358265193	-0.4397032327568281
Si	1.3149258705821858	3.9023745664269214	9.354629556319844	14	-0.5317683436185624	1.5846382862139887	-0.9383300287986817
Si	-0.14269891284903408	-0.01778084369502848	10.904024381887654	14	-0.927137750229545	-1.2683262544290472	-1.4234736914311468
Si	1.1303238394300128	1.2872388297640855	12.103487809274357	14	0.2636341975436196	1.4895384997428835	0.5838018588666551
Si	2.591144016243747	2.505263241731433	10.524643461336655	14	-0.7162929728981418	-0.0844798359462335	1.769971785227287
Si	3.8327907758027076	3.928886619543828	11.804784601165887	14	0.13234353258611012	0.6529504508993776	0.9045768152663097
Si	2.2330545733730505	-0.1516179929331628	13.440926316841471	14	0.5107886384272181	-0.8480124982230519	0.05719732317307819
Si	3.539104351226029	1.0848877974020112	14.80158914093611	14	-0.19106474988244007	2.136661797544678	-0.4537458386838808
Si	-0.42255455401071307	2.128608037907322	13.840762849838184	14	3.123964697818348	3.8809153304755872	-4.364633829429095
Si	0.967936718026831	3.9192526756685937	14.56051923878362	14	-0.24832223692000976	0.11504153644470565	0.46831963497007617
Si	-0.08546045370863573	5.2067653508047735	-0.20674370318537144	14	0.3760994864575369	-0.24744086201626295	0.7011285937199084
Si	1.2649315768082254	6.62733981066624	1.1026527198544762	14	-0.2458298074226582	1.0698479794664923	0.13440967282138114
Si	2.5497456013298745	8.154206078006556	-0.3191938472878219	14	-1.1981769882057232	0.09721117816001074	0.23968795103388849
Si	3.88284557029841	9.58893611463132	0.8933663942316977	14	0.2544856905934687	-0.08310403748942226	0.7182305578674054
Si	2.7313528467558346	5.535496022388191	2.5224088278481736	14	-0.9238459640881596	-1.1085179177025835	0.13482542055164906
Si	3.9852510024674848	6.871431564657304	3.8364781355804376	14	0.5108588296024581	0.32557392447971095	-0.031079778220481993
Si	-0.0502633627732852	8.092420511989994	2.581497335374462	14	0.4312504669063092	-0.492295449190989	-1.0765179408880203
Si	1.3194873065766572	9.522052566745893	3.7543770640527216	14	-0.9844271189730845	1.4862166316692527	-0.9360024071523517
Si	0.04698677105369632	5.457177838093586	5.201602091841398	14	-0.6266701549800161	-0.41762823669910065	1.030167853950115
Si	1.143299652119347	6.9580176502151865	6.587646560830928	14	1.1673260383587343	-0.5760656600688616	-1.1187275198183595
Si	2.5487537079181624	8.266476312068038	5.023976749180594	14	0.7314442394392424	-1.584798208964902	2.0788196411573066
Si	3.8761204374395453	9.545560281391047	6.436694075836924	14	-0.4838527106512187	1.1397187949836445	-0.6636462490311938
Si	2.427449760826094	5.625209039985565	8.011368650347217	14	0.409420497185592	-1.4771048915251794	-0.6148492411601033
Si	3.806781833950811	6.981702090652798	9.217912254301954	14	0.2750175092380432	-0.08141867795206519	0.4102417082248473
Si	-0.23139297092233696	8.150018791212329	7.866205129149339	14	-0.9942466844117942	0.006162425231330916	1.0912249204297995
Si	1.023581460786613	9.54431205597406	9.17264816169364	14	0.4967753431008151	1.0897974427560533	-0.5731556830675181
Si	0.00229584317767112	5.255086321985299	10.682381579911265	14	-1.5867141966494764	-0.6286316512287571	0.4664260159017871
Si	1.1493783825301296	6.851034860809077	11.771972512366565	14	-0.2755011341487631	0.5462338963707796	1.002091383854098
Si	2.3858666594984834	8.338894083868572	10.50041292227911	14	1.179072647234895	-0.5884509315065469	0.7059221624787926
Si	3.8201095061008004	9.459663585636168	12.055798911423604	14	0.5079043724790759	-0.3986367672518269	-1.7395247560260936
Si	2.2807036681173924	5.29620133878154	13.031718540471825	14	0.6405312408714665	-0.28895649962069403	0.802225740460791
Si	3.4095245422494016	6.715016501339728	14.593609949327806	14	1.2391346959556822	-0.7061134527146116	-0.07505596361629474
Si	-0.1795358917684354	8.117208294537262	13.322512075274698	14	-0.9960194615300363	-0.942778555223602	-0.8337513483437865
Si	0.9434800973248851	9.599550807048471	14.545494362176349	14	0.49909448009958857	0.4125240784175427	1.3380278912161336
Si	-0.18342067495395378	11.015119628247943	-0.25916439432602445	14	0.09748062999756225	-2.5044594420339887	-0.6722273130371879
Si	1.1728765444297464	12.221263609014331	0.9560785765654618	14	1.8704675504337869	0.7436605892573941	0.8913019413878531
Si	2.568012042923093	13.69600850457419	-0.31219327693260696	14	-1.1475799494999972	-1.2646680857795405	-1.4326710493823804
Si	3.976822296654315	14.865194504977692	0.8914845033606802	14	1.466851580618961	1.2525468668582347	0.12461144755682883
Si	2.6545376277592334	10.915747192787233	2.3895444665306753	14	-0.9909973215081911	0.0874299221905714	-0.6512908024152221
Si	3.824925681976289	12.286835246512517	3.8194917618893327	14	0.7421675483979842	0.37397472502096657	-0.7059913252119046
Si	-0.1974950533801762	13.720086199703122	2.0142728186853414	14	-0.16015055084457563	-0.9271511199772099	1.022476906605956
Si	1.1367432844316565	15.0961544181023	3.197494986532915	14	0.9718677837052252	0.7578201804765134	1.9993532034748296
Si	0.05603003682982112	10.989488019844801	5.113178694891676	14	0.36613516778930305	0.011981865012954077	0.4408574019350425
Si	1.4416223425305457	12.44004536370204	6.453194851629839	14	-1.169715109422216	0.34855934893130275	-0.2028298707169057
Si	2.5386851141209417	13.924955972638758	4.8456031081193025	14	-0.9752870966704902	-0.7709413022568251	-0.05927297649803374
Si	3.88606484554477	15.118740292803023	6.252873777694624	14	-0.05135037256452945	-0.4641469881460079	0.3659477342114642
Si	2.6126440622016327	10.936255345333405	7.847480155770289	14	-1.1579119362290122	-0.4952884728941734	-0.37021474060078197
Si	3.8164444360626595	12.159137328406908	9.318536099428162	14	0.6343384765973578	0.8686533317332009	-1.031978169206031
Si	-0.28173593990844015	13.801047310263284	7.738593185753572	14	-0.7099528842891887	-1.9367971825934989	-2.7707426493889566
Si	1.0423908167512501	14.793326016045604	9.04735116696662	14	2.124922387763414	2.2787184518092434	1.7318551488560918
Si	-0.2831752202361896	10.82858794249706	10.611903015454978	14	-0.6826408038048517	-0.09608323425606177	-1.0831236246765448
Si	1.0980594413748774	12.118772202135412	11.801592392031885	14	1.1351928782885878	0.40400420671816806	0.28424983422163097
Si	2.42598182226173	13.55851265379494	10.460087599114026	14	-0.25124429811635807	0.005448686394457809	0.3557666713647418
Si	3.7978993727245784	15.014013543468176	11.697812956629573	14	0.404177499216746	-0.32398626694451954	-0.3198053925834268
Si	2.4834192969341733	10.795826801673941	13.202438840232796	14	-1.7132025510900133	0.6814421545045987	0.49572684635125863
Si	3.582553422182094	12.185203586732033	14.595708369097686	14	0.25458184993244226	1.7288307576680013	-0.6047841351633196
Si	-0.26244576241838236	13.615367410989556	12.848576487262733	14	-0.5972716225283791	-1.0580774593108544	2.029409938888425
Si	0.893460329562823	14.886046556363242	14.36728948628623	14	0.8039902900420086	-0.051159853660306474	0.047413753208850724
Si	5.249029881314106	-0.017293653672582322	-0.17468787340781922	14	0.6652205368187204	-1.6801929012162284	0.3571185585420757
Si	6.46833276905931	1.3346841326036134	1.1800013004769576	14	0.1393053144614751	1.2786662115845548	-0.1996699822784437
Si	7.933012255070461	2.7083816779850722	-0.13908319866284052	14	-0.46940232742039056	-0.25133222991830706	0.5714566966719642
Si	9.298956155323447	4.068038279549692	1.1681845542462537	14	-0.3267694884535798	0.9110642282101074	-0.028967100978916315
Si	7.834601462660593	0.22833290810161305	2.5761923773522706	14	-0.42109640066544834	-1.037479049038488	0.8210837695419491
Si	9.189677522739666	1.617173147285312	3.825712191358931	14	0.46046876487500404	-0.5341257900866062	-0.23287709304081622
Si	5.227281463972228	2.832190036532395	2.500249642448155	14	0.46464269725173246	-0.9376098621985082	0.8435912255145253
Si	6.535791073801283	4.076103981032412	3.9907119886668	14	0.45783003948493606	0.1577751066392908	-1.049303048184785
Si	5.2713976349917075	0.03998142432571232	5.47119490004658	14	-0.7830157270613046	-0.024985487280135003	-2.0695639191153052
Si	6.611956706101289	1.4298438072819943	6.536169999374297	14	-0.6268174793148606	1.346537221383696	0.9945320771023305
Si	7.936089831258005	2.8227184893313093	5.3060581800526645	14	-0.20093470898542454	0.10659982634706346	-0.1892521206317357
Si	9.268826795896091	4.139284247897546	6.60921825238035	14	-0.09951488852686342	1.4629432434218042	-0.4077600773698404
Si	7.783857278361887	0.12475248823134416	7.917622782008485	14	1.2213920123624042	-0.9901092617306119	0.5197173158724963
Si	9.051918971458116	1.4638085940429222	9.423415692691622	14	1.0293129614311656	-0.8738119974475459	-0.5457983511295464
Si	5.1717481699103915	2.796016973427896	7.979669456403091	14	0.3420140861178018	-1.180637936153801	-0.29555729830911015
Si	6.530156546058025	4.190085748669481	9.18665726302535	14	0.40334754641940224	-0.03285075556499999	1.025933757708895
Si	5.211611777041133	-0.041017897216602685	10.606448397752686	14	-0.8936694151666456	0.05472057741817955	0.9560680844023832
Si	6.377777517730323	1.469602334211816	11.96417056834583	14	-0.3183889706625571	-0.5331983923976288	-0.5241028502170729
Si	7.782424366531163	2.8221978646994796	10.754102001287514	14	-0.5654454524334581	0.5577277655939694	-0.7519338919565666
Si	9.103249057483163	3.997152131283776	12.20887688229985	14	0.8974054883073528	0.8847391950581752	-1.402464675639153
Si	7.59612990729448	0.1086704411178518	13.307977572938388	14	-0.2182449326638535	-0.7381802782674984	0.5530671229801372
Si	8.854207389179075	1.2752963057171292	14.808457564978047	14	0.9125973783125118	0.6128738609426335	-0.6314040740954728
Si	4.996878794337348	2.5342526401912355	13.43567389891974	14	-0.532663345380506	0.26051467545868395	0.43052078721645115
Si	6.352238252534052	3.961792643674277	14.734555933370586	14	-1.3906057094605018	0.17897001334593152	0.32117861993491786
Si	5.325706585500403	5.572326632810568	-0.29484389891105206	14	-0.3791655295518135	-0.7909241899155481	0.3085506361550105
Si	6.797752830445732	6.835834850533607	1.0566642107095174	14	-1.2492753924488782	0.3261506234030202	0.47130288847304397
Si	8.103310641903496	8.244512957951553	-0.31969695855283164	14	-2.5471212783901414	-0.9648021291749262	-0.9757642938179096
Si	9.264134805712597	9.457017475122099	0.9639627758829565	14	2.076216397020657	2.2740164143997568	2.1151059076510883
Si	7.919918625186156	5.430092620244391	2.61698419292447	14	0.08483079182243371	-0.03907488732401446	-1.0268110188441297
Si	9.329872024133445	6.87188372794611	3.7486326797357745	14	-0.25763092373160584	-0.9144506310272743	0.48957599109386835
Si	5.199147036238091	8.295003994493497	2.324757746290874	14	0.5993809573330285	-1.256807445484252	-0.37602312462952847
Si	6.538766754036421	9.532818510967397	3.683548232260034	14	0.28617739188014596	0.8384518430900814	0.06199089193196227
Si	5.217423030576847	5.40495138611221	5.240927560973489	14	-0.55999290938102	0.93159707529681	0.21855809329184755
Si	6.453616764557775	6.949596905023299	6.455363324867001	14	1.3896667417975839	-0.2647631698896966	0.17439524564979203
Si	7.97135060716361	8.257904315071794	4.963160786836156	14	-0.944255141008963	-0.48805106852848856	1.303200469881004
Si	9.14008285215405	9.602332248124332	6.454756725525328	14	1.1468235303148095	-0.07643304762576605	-0.168647539706601
Si	7.9043078468525465	5.596531697880009	7.9295286871975454	14	-0.7279673337148062	-0.23352141203404533	-1.3109870623430724
Si	9.013661817702042	6.825153288897688	9.473530987909065	14	1.5738162468109538	-0.09106495089219675	-0.5835509189874087
Si	5.133024523747204	8.33371171941412	7.809859851716759	14	0.0519468689988038	-1.752539691156683	-0.08811075087934661
Si	6.48163815146971	9.47321733943056	9.163189351486604	14	1.132089039946105	0.6397483393014813	0.021207505122709414
Si	5.120964182505277	5.498729096936071	10.529674573986753	14	-0.24387988114785789	0.02925660743796499	0.374677922326027
Si	6.288688612841442	6.7515079892955	12.156718891661496	14	0.7405402958408623	-0.651931521861003	-1.1612438316133924
Si	7.643258377406992	8.125949056704679	10.718967003198161	14	-0.5876646874996456	0.009164962024199842	0.17605000903383933
Si	9.128393475863858	9.450569371883839	11.85341762870066	14	-0.11438230504061969	0.6123717240736087	-0.19125141212868285
Si	7.647727470194594	5.262814493125671	13.420241438502842	14	-0.6224034057012304	0.5828050413340338	-0.8252039658174865
Si	8.834847158221738	6.72291502977553	14.63127642498477	14	1.2726711653095655	-0.8342151757435414	0.4021324420451002
Si	4.998373799014069	8.062703512745035	13.469379169426883	14	-1.0713736733634682	-0.5278281247154355	-0.31844964874811266
Si	6.285302164548164	9.513311804578477	14.591772637935964	14	0.43327932611443815	0.22369978971107965	0.9366133017764188
Si	5.234952318639371	10.963655803785361	-0.3891581556093057	14	1.4449246802276743	-0.07461990415399762	0.8575153034863194
Si	6.756876632287946	12.350047355862777	0.909961105355738	14	-0.6428197817169303	-0.5326754295755107	0.525857629598074
Si	8.010464323769606	13.71964995765688	-0.5952188374886987	14	-0.7310678296203728	-0.24495563161380787	-0.2531222334421942
Si	9.083544927686452	15.142013965182494	0.8462108580068273	14	0.714904061804198	-0.36270711306594955	0.17909522617502274
Si	8.017313642320467	10.859661431608439	2.4445380304696056	14	0.01940567451434964	0.7997389673951438	-1.0112136655299833
Si	9.473433868329426	12.305466284560442	3.7354451145203447	14	-1.207945645759094	-1.0578319187527803	0.17175986269664023
Si	5.247157543188627	13.584570951498783	2.3724737102539835	14	0.3196213014425041	-0.3623116770677108	-0.5422952201308446
Si	6.58397193804725	15.08771775166785	3.5305610124664017	14	0.4752945294825739	-0.09576261742263929	0.5523839802965739
Si	5.242083443183607	10.927512991041732	5.054844854262902	14	-0.6684896972332887	-0.7149871085060386	-0.06059915262216612
Si	6.39651682022768	12.263776510907656	6.429868639149909	14	0.5601106660046827	1.4384624641160142	-0.6281984199823122
Si	7.926853918446861	13.582633336278793	4.95178187477595	14	-1.4263196479100186	-0.35314105861180667	-0.42923780566169734
Si	9.199523219140994	15.02708965998566	6.075170420945259	14	0.9179966994848227	1.380743206562946	1.171728799108956
Si	7.7408396730792965	10.97379126680135	7.6826921109885165	14	-0.6260224935498708	-1.5101487370997229	0.2313699111021454
Si	9.021651097220456	12.295636509401675	8.889974460598204	14	1.119866262364653	1.1337679717201616	0.9080982011127846
Si	5.033486507363833	13.660413382574749	7.7214237177729865	14	-0.5821324401822832	-1.0926786233778112	-0.21052853137702504
Si	6.4740612321336934	15.060156488666001	8.724525684250041	14	0.7762022979629122	0.10247165964503371	0.7431535672882609
Si	5.1571834172132105	10.736195379776232	10.500492528491929	14	0.03230208168968039	0.6783938520370311	1.1997273647137725
Si	6.535060288767614	12.30981915227733	11.671358219985894	14	-0.5547272856853568	-0.7958465710509716	0.10208985050499171
Si	7.766612980541252	13.785003474131946	10.242675071286786	14	-1.001396671196594	-1.5374605604735279	-1.1942095155862027
Si	8.901517361456813	14.934716202755908	11.696442137644844	14	1.8649982951967679	1.1991586362169557	0.43990969251403594
Si	7.6333155614260235	10.750817448946643	13.170158520935095	14	-0.04314751815112902	0.17574147639542156	-1.4060241138443659
Si	8.921735747388329	12.172625805106788	14.311432991000354	14	0.64718911809799	0.9368896955983348	1.2790750173304584
Si	5.04653078139619	13.47293597501559	13.072298603517929	14	-0.7281339413395517	0.028598147365475068	-0.2194831769860368
Si	6.347818515598396	15.000811649134437	14.166169165974322	14	0.025779187492464713	0.1977737921048345	1.1934464115271828
Si	10.437089364230905	0.00515529834209368	-0.07954411997200196	14	0.635367175835949	-0.48435099086226346	-0.5682574703221039
Si	11.85973358562564	1.440775332426162	0.9944901663744031	14	0.022751968088522367	-0.34704213968188335	0.6335098093526741
Si	13.3555948251976	2.4309014862138825	-0.5412330882040438	14	1.2089836009768375	-0.9332886054869353	0.5467671436141782
Si	14.337489696579942	3.9774304881202447	0.984012396643298	14	1.809766582040943	0.2089264756520408	-0.7827902411247276
Si	13.265393025453525	0.11871515305122704	2.3169006130857372	14	-0.38755633176411675	-0.6498232154984817	-0.10879760717472603
Si	14.458150425472441	1.60435813914587	3.645712991431895	14	1.1576370850702884	-0.26137085353029327	-0.6665192021159272
Si	10.677691181852028	2.8249028838110353	2.4926583939938305	14	-0.720238848232973	-1.0667271718288966	-0.77439378248072
Si	11.93097636972498	4.086037244267842	3.7884724050026706	14	1.3724490779106802	0.6455376971508588	0.09718778110159738
Si	10.47487365708284	0.2094328010543635	5.123497252197145	14	0.5849066628227227	-1.782421591408508	-0.023534098326911414
Si	11.871058365461128	1.4482153290761324	6.491494992740836	14	-0.2951672616320437	0.5359067947418727	0.3735368657849453
Si	13.338000260040568	2.819655242262073	5.174317858460157	14	-1.9951682153452246	-0.8267720829522447	-0.5849184899071955
Si	14.528727701632622	4.187812195231399	6.3675704091227985	14	0.8316808372294715	1.8294944160519069	0.9237456909806737
Si	13.120769234378551	0.0685568704788616	7.873528900728595	14	-0.2877262257250031	-1.0419861966647075	-0.5619497776401846
Si	14.382023004154586	1.3334581969262163	9.250133665002167	14	0.9945089371544492	0.3701044401825476	-0.26148886726448806
Si	10.490065706737028	2.789888887165166	7.943478879931772	14	-0.6785118657712259	-2.0009172068410757	-0.4624698561456752
Si	11.697164962057233	4.004316690437396	9.286876708590443	14	2.1935917257644606	1.052151575768977	0.017831643837354985
Si	10.356164872528641	-0.09250082717025963	10.817901604488373	14	0.019516489153648026	0.6847773923258947	-0.22605363663167524
Si	11.905690252285472	1.2555905837961614	12.14402329284128	14	-1.9171130573729773	0.9129303364514708	-1.1663271639418569
Si	13.116806437104472	2.608545934365762	10.617513661334389	14	-1.1193381573318943	0.31930222727227375	0.060671657792194286
Si	14.424682381479498	3.870100615626248	11.974688141183345	14	1.2949428509242844	0.6412606634507925	0.07163382243517764
Si	13.246693526062579	0.27420996854862645	13.636287923718125	14	-0.7338001432440941	-2.777445520958583	0.08852495594642246
Si	15.416825756700025	0.2126313786853907	15.461080442529807	14	1.387517040639408	-2.4353018511326456	4.048293515485632
Si	10.420233544728822	2.628218221677346	13.462544179994328	14	-0.8713655907354251	-1.7613899498896965	-0.37056518225591817
Si	11.76655451352217	3.90025385691745	14.641872011910845	14	-0.11648444075037274	2.650626265263343	-0.015034795470097909
Si	10.622309139594545	5.406414548303805	-0.29439969624352763	14	-0.02609594766790696	0.10111514447812357	-0.18293542908119592
Si	11.905637712185012	6.930386333746059	0.9423449127301005	14	0.43206704995598827	-0.09642262015832131	-0.7087120688616853
Si	13.322313059742653	8.305367131278144	-0.5851104405850691	14	-0.7394028388472288	-1.499630859456061	0.5806941638661922
Si	14.505224763360236	9.449808336489301	0.924170814343751	14	1.0189748040493822	1.4237961080382933	-0.47451497034950496
Si	13.1105302832859	5.450096069401297	2.2404452141710736	14	0.4767153222824877	0.3679524250295837	0.9329548760163802
Si	14.589373306681631	6.78653472293542	3.6258432807125223	14	-0.8156271127209989	-0.2086554811512972	-0.44382162925864127
Si	10.66833904397017	8.146667369652691	2.465886824623137	14	0.07476954248363024	1.1850011018820925	-1.4003856798772811
Si	12.087248141859485	9.677431157172578	3.514587229802342	14	-0.31943849585424156	-0.6354527936431099	1.0250318139625871
Si	10.646071594120718	5.419753365323588	5.042816355506102	14	-1.2662218047245062	0.49627629155817427	1.160355771835813
Si	11.76842207527488	6.906373915711637	6.407523175211897	14	0.2541216220801358	0.8035835411803612	0.4719389799292486
Si	13.321959608157739	8.20114986170533	4.969249069992476	14	-1.0416915479950188	0.1271236745651455	0.05027256521432338
Si	14.54661840190134	9.72909558929146	6.214455819388657	14	0.19213921479572998	-0.19773728240928837	-0.08191567261044981
Si	13.075743960408692	5.513863830117028	7.742431797335656	14	-0.10643861804349017	-0.7576216911457981	0.4750605588984404
Si	14.434064769722227	6.729396567623172	9.20435053988628	14	0.5882992362926582	-0.028470363431063708	-1.378386017205434
Si	10.419943778114165	8.25787247258667	8.041292625745504	14	-0.8959204178744352	-1.1038439053410862	-1.7710035697922624
Si	11.887536851514454	9.598073315738569	9.063299475642578	14	0.14456116795692178	0.6117443743754926	0.08920886996158185
Si	10.53385708440821	5.384099334726662	10.642333286366785	14	-2.44957945608596	-0.8411615309869854	0.025699483227540124
Si	11.738189227770862	6.773076496596408	11.805072775656289	14	1.0206995014981377	0.5999257745503679	1.5606359896082784
Si	13.07116023467463	8.117905644961548	10.402433595542716	14	-0.30563937360100685	0.10848470365726401	0.4374432311804179
Si	14.266629022302126	9.545289620267466	11.713055954259962	14	0.6585246072334587	0.016855652257826776	0.46641290326465434
Si	13.129310981013925	5.356436175772408	13.209022274032844	14	-0.7028975141801703	0.05532658694213845	-0.05479359680927176
Si	14.423372063216512	6.771471635345997	14.525263239250782	14	-0.3184573620640731	0.8061960412961636	-0.8176341175339064
Si	10.219543097966133	7.9038111040845624	13.262414160969875	14	0.7399417425223318	0.6752262502826086	-1.0391692936759533
Si	11.442840625470541	9.435404388342013	14.48413548546049	14	0.5314340999269432	1.1413912989944006	-0.06065545982867737
Si	10.528685864823554	11.027824779813695	-0.40639608493291546	14	-0.08257207579868363	-1.1662973391201432	0.029944635221636616
Si	11.723750252889932	12.435780062819251	0.9653001602582989	14	0.8136280783345836	-0.01375747034704834	-0.19361657191268705
Si	13.072279498026852	13.653992345448849	-0.6181310976619755	14	-0.3945278838396982	-0.3178598371876707	-0.6787916020300581
Si	14.48497135069508	15.102678943304864	0.3469732313127911	14	0.5914490974203717	1.510847563525739	0.08145210232122711
Si	13.344392638929852	11.043828812838626	2.118437548157694	14	-1.3942474230359596	-0.18893870289320966	-0.512921370290281
Si	14.620413361183626	12.32908226365503	3.426918499750135	14	0.840427223307551	0.9740635076486316	-0.24343919369598455
Si	10.3731273643559	13.865939110704005	2.3507300692848747	14	-0.9434979504921793	-1.4009191842312119	-2.171602604624426
Si	11.967990074436837	14.970155296578225	3.2133286622624153	14	1.0458248569076887	3.1142166091075385	1.5283004835494363
Si	10.788858073803853	10.876262511229504	5.08597088347474	14	-1.2111027059817034	-0.5869486346679844	-0.45522628112722213
Si	11.932098817325715	12.372626862066475	6.297778050221002	14	0.42240072239435955	1.0741003305554853	-0.45571736224337034
Si	13.243666897851238	13.717986187808982	4.627225752992708	14	-0.562181948450594	-0.6892372316142237	1.2114834866796176
Si	14.507396420845911	15.214153115238165	5.817762139674	14	0.061908873672249544	0.1563178041438309	1.0958210283000962
Si	13.164377517760252	10.963198864123786	7.601675276079382	14	0.12832438074965466	-0.23326018773351828	0.24903237620943464
Si	14.461560755629563	12.413248320343245	8.831159798444007	14	0.04280427559088925	-0.5275890119206617	0.892080214968262
Si	10.495571272415521	13.662132876771617	7.599215444103305	14	-0.03182411321066486	0.7612636618317878	-0.03086534803678164
Si	11.88999190711776	15.100684011611644	8.983967108196673	14	-1.0342302003559491	-0.17525528037938154	-0.9794214340252884
Si	10.32841255461603	10.904287082389953	10.23255234526485	14	0.3475242219294112	-0.12001996767610838	1.449692537933357
Si	11.589936985515644	12.275749285315483	11.75804779362044	14	0.9597910449059578	-0.8389740345806035	-1.1876277430771558
Si	13.009178837374536	13.56600996691814	10.260151819248849	14	0.04647761376178481	0.13672778137802663	0.5381660249866869
Si	14.337018427800057	15.137481187424637	11.449580087447714	14	-0.3562425829595013	0.3305338437528086	0.22941072884819258
Si	12.938351597706104	10.824965859813842	13.14182666979317	14	-1.3215759024935703	-0.4498835242719544	-0.7614888906578329
Si	14.215856179766806	12.286255713283202	14.271278025130696	14	0.049741889076244813	1.5436967764275469	-0.3027520223264806
Si	10.292346163836706	13.598763147119977	13.02565891555212	14	-0.8588003419253294	0.3741449321931603	0.020651889263025417
H	12.300428803413318	-0.5346480622797389	12.676714634409954	1	-0.5868974696721134	-0.4955396698839519	-0.593140370499965
H	-1.2141030099239325	1.2468418610074632	14.733011572841917	1	171.30658479912464	72.9482627490762	21.140640700643115
H	12.42945136890022	3.338788053663583	0.24537341401743412	1	-0.942536357102444	0.8410273192892738	0.6001348054128959
H	14.4756892662805	1.232082869151006	14.434190547538478	1	-173.54226911852737	-72.26087131397132	-19.54813868880745
H	6.2541044897447895	1.0848877974020112	14.80158914093611	1	-0.12875375533811936	-0.05030110448337702	-0.030333900567107032
