224
config_type=interstitial dft_energy=-23337.057797766774 dft_virial="-14.379011555307363 -4.241000599177733 6.5149847299749375 -4.241000599177734 -15.243367867901682 -1.3853935290647263 6.514984729974937 -1.3853935290647263 -18.668480732761417" pbc="T T T" Lattice="16.3852778749 0.0 0.0 0.0 16.3852778749 0.0 0.0 0.0 16.3852778749" Properties=species:S:1:pos:R:3:Z:I:1:dft_force:R:3
Si	1.854534905714807	-3.5283893523030914	-2.1559584775014673	14	0.5439206729142424	-0.14452748647722785	1.8654816629969555
Si	-0.21820274546004334	-0.0224314454107381	-0.12072672738226321	14	0.5268346496197303	0.2109887592293316	-0.25149575221666853
Si	1.3013843099360576	1.2551122852173402	1.1524585193310914	14	0.19123238594931374	0.6673257578548577	0.5291507012921196
Si	2.766228151952118	2.7476308615641063	-0.0274289551625826	14	-0.29410642357695066	-0.7823860633684004	0.08013081129720302
Si	4.07347839136739	4.004316133457436	1.4280916637426595	14	0.43926280241548665	0.3919763189199833	-0.06255627799186284
Si	2.7895935582017253	0.0320168329675546	2.540537334503245	14	-0.13933179684627262	0.5564064745699454	0.32008692861598287
Si	4.138478788697118	1.430156208754897	3.972020750766009	14	-0.47417969821575773	-0.5620580211741629	0.5840209170399319
Si	-0.0018023805662390003	2.596001500109782	2.682450226177754	14	-0.2959499060914968	0.2538987072488789	0.04885588618292178
Si	1.3377268562625861	4.06866111967217	4.03977387477872	14	-0.9168150194796826	0.4070527662962676	0.8050686116132787
Si	-0.07434000571842131	-0.021038696791371603	5.359509695934666	14	0.1599242935764026	0.15994229131364363	0.501167305208692
Si	1.3279776159270202	1.3238485259025456	6.774902769324278	14	-0.4773822670025341	1.181713943730283	-0.9267927078955812
Si	2.7182192877786613	2.7395856901275306	5.393050359744587	14	0.2784782169989626	-0.2636884478658748	0.30562728940600215
Si	4.173723521406028	4.0666785010493065	6.823534274056981	14	-1.6202887183620982	-0.6306810792794472	1.054058821695463
Si	2.7022272565727588	0.07496264627766751	8.052806976065604	14	0.4228031003769627	-0.2312871215108366	1.2592119431796545
Si	4.093550356764142	1.2349911639869628	9.661955960325908	14	-0.2621462988948499	1.4113000219613099	-0.6186331368597652
Si	0.0934452397205547	2.9239364514980304	8.054674897743343	14	-1.3548961418900292	-1.1373202108304783	-0.4067738013690315
Si	1.2858674517885276	4.109181911856797	9.520043068651399	14	1.6859069256797254	-0.09418575852979248	0.47024847818125126
Si	0.006767119762333701	0.1199893898778927	10.876088665578123	14	0.1560468096430873	0.14521345737664337	-0.4300698153432972
Si	1.4420027646584495	1.3927322340886252	12.269115834668497	14	-0.2702941316543992	-0.43339811118022886	0.7285178073638499
Si	2.7379143917842907	2.881678819858663	11.010366017762928	14	0.5531067180020673	-0.739373014025515	-0.8711056519875581
Si	4.17333027473703	4.321535113115501	12.257908304602067	14	-0.6258052351503183	-1.363661039926414	1.1190622777310426
Si	2.74212540819814	-0.1946898717095618	13.635320303877661	14	0.30778213277481825	1.0398992304763433	-0.6934047362276516
Si	4.0403145889485925	1.3075451744170201	14.974964237651609	14	0.04445081143791208	-0.007451320328321147	0.23253847847015272
Si	-0.030509387403063803	2.6021295940349947	13.719950264101518	14	0.9036651013197853	1.4807334924635047	-0.8103476050566067
Si	1.4250931578915527	4.0999733856911025	15.038653812751345	14	-1.3105687435074842	-0.5777445918429184	0.08628295210725334
Si	0.0963290486265371	5.534848554473971	0.04836934028670481	14	-1.2780733146977288	-1.0278350900931448	-0.9103157794514123
Si	1.3783131895587133	6.825598819069219	1.3569140166540938	14	0.07203285798086462	0.2777199980400509	1.2615423930418366
Si	2.726035065324988	8.13201340931287	0.04301135442161251	14	-0.36367821954536955	0.5896146137744459	-0.6606424266856648
Si	4.071331919965778	9.431939429518062	1.390798771299387	14	0.5176714873692546	0.5336179967858768	0.39831435064468035
Si	2.7250355633746195	5.420102453516047	2.7713731292048367	14	0.20593010951194024	0.3394941457935246	-0.3693349083602273
Si	4.203462800748972	6.739723577726869	4.092042911199651	14	-0.6336208811025046	0.04865354019422613	0.5492264058529
Si	-0.1441740600212451	8.20186384889357	2.628427965024209	14	0.6446426953889152	-0.5408353465300646	-0.3245645085310208
Si	1.2212439158499218	9.449012889063708	3.9591746929120877	14	0.5262736344388739	0.0344499830741321	0.8423439823237215
Si	-0.12868997242946462	5.690262915117398	5.596309731782721	14	1.8411577211156949	0.2342431212974109	-1.8191747706284287
Si	1.3071191571922727	7.070722576077722	6.8513237053328115	14	-0.16011429825956153	-0.3644940312634525	0.3283725726206922
Si	2.7368329634445474	8.20828687782053	5.370553373222348	14	0.5209049094198728	-0.23323936178042504	0.36313700187547837
Si	4.08003250251735	9.606622876942373	6.829531285759194	14	0.0972415172027885	-0.3292886574462609	-0.6158967094675317
Si	2.589267150903198	5.494753779514091	8.139648948802574	14	1.2573543195858474	0.29856240620729924	-0.12363237065091642
Si	4.089437652017542	6.704970403354205	9.632151139871466	14	0.0441003697827759	0.18941281471424495	-0.21306621232801123
Si	-0.17774749438691523	8.478562036367006	8.227375726544789	14	1.1836461293783744	-1.8486959448038371	0.23724848630613196
Si	1.4387584796392192	9.65009301914448	9.399906211272633	14	-0.48454279531914657	-0.11600595805029319	1.0176619976729147
Si	0.07358628293617592	5.380630319115412	10.924212226696705	14	-1.093489292885254	1.5243013863344779	0.2217886871266136
Si	1.2963048737948388	6.862629547066493	12.359382330481322	14	0.12110831655812707	0.37750870928351005	-0.7971092408736963
Si	2.693411977076062	8.183332099617058	10.837829041740234	14	-0.06429357385668688	-0.12888256771465878	0.7380069857689204
Si	4.094779252604759	9.46433312387674	12.339261209250944	14	-0.024193843952061405	-0.2287535543283627	-1.112646341515145
Si	2.6317050205991888	5.464998114893273	13.682296895544997	14	0.7306798498275625	0.23082303700054993	-0.7587414075127226
Si	3.988569881419658	6.711622826171414	15.085351854694808	14	0.6812788893167693	0.5757635551937442	-0.3230498703869216
Si	-0.023447332638981903	8.308220687579546	13.711806780997694	14	-0.20356803505432022	-1.3454095345902788	-0.061074807106393514
Si	1.324454781183917	9.592679005470831	15.019384725970463	14	-0.13677534682644937	-0.4472813085774325	1.6418088698917377
Si	-0.1107972489900738	11.062323733904238	-0.11712196624978521	14	0.4444854886523035	0.21437721893075476	-0.2723134777728435
Si	1.2637800972131623	12.270017024951617	1.401973530810069	14	0.4938774502944761	-0.5191097636853453	0.13721474872566267
Si	2.7850876067861274	13.57289239517429	0.0727014779309313	14	-1.9471749349972125	-0.614167898250264	0.9504319644300868
Si	4.138609870920117	14.965854023153163	1.3485902954936446	14	0.5125012516809687	0.3944641204277586	0.4474083211802478
Si	2.640880776209133	10.797652340390979	2.7628363994320133	14	0.025633920041876347	0.2773764983692791	-1.061434808637904
Si	3.976248152457733	12.159268931795168	4.067038977162554	14	0.20188293262749513	0.625920934889725	0.5942960823413717
Si	0.10539010729135681	13.709611153762456	2.850251856894605	14	0.06100718703647362	0.06397012880741226	-0.7020673042722945
Si	1.4913388363397735	15.18574445223432	4.03405541280038	14	-1.2056013119281828	0.6320933874318045	-0.8047104566421822
Si	-0.11486079790304901	10.808532164899912	5.307715832572107	14	1.4909523505584332	1.101319594137765	0.17707176628806617
Si	1.2356957309355836	12.39238228012137	6.606429342214557	14	-0.21139139432246676	-0.7071280108739421	-0.0695268016253163
Si	2.5924131242551787	13.766205903542362	5.3011289508663975	14	1.0672344509085618	-1.9096038871749528	0.5630075303688935
Si	3.880230424110819	14.950419091395007	6.764809438153339	14	1.3776352544519508	0.21744351913556334	0.48544551039705053
Si	2.636931924241282	11.063962261691728	7.9888552365198695	14	0.5387663780789415	0.26050181993208316	0.3524031513849241
Si	4.08330955809233	12.210341842931232	9.554796243024063	14	-0.717182061117849	0.7008534854506526	-0.8019128369433289
Si	-0.13847198332077992	13.645217011714099	8.018283195583189	14	0.8119756289453246	0.6073927786211418	0.5930097583497016
Si	1.2838520626099146	15.149860693688291	9.374214095564788	14	0.009158534260899472	-1.0238637608156438	0.5721704355088373
Si	-0.10968305009458061	10.908515130492551	10.842187525654957	14	0.1764742414116638	-0.9074618525460478	-0.2732655580728943
Si	1.35914241444508	12.38672935925453	12.165708346000002	14	0.8060998819571902	-0.11308981039618124	0.04279939049078097
Si	2.8344728343010765	13.771875209687076	10.831061921977899	14	-0.9618209325562146	-0.23091302568675512	-0.8814597502223265
Si	4.250963721308307	15.056841471192485	12.114143876527692	14	-0.6062056992948295	-0.4865575134480145	1.4228301437695137
Si	2.761984364982519	10.703109287052804	13.722080350225255	14	0.05667538879308814	0.36650412140274424	-1.252640455091888
Si	4.181703151731105	12.193465006720084	14.90006713248544	14	1.3434382681413215	-0.33000959537803043	-0.3826000120384673
Si	-0.3052904973651368	13.871563240277967	13.524408357942463	14	-0.3630426423102289	0.6839759787976045	-0.35901654848940906
Si	1.2501147754654958	14.980781011297198	14.980404149906075	14	-0.020550587713411582	0.8618928674044034	0.25998759886805356
Si	5.479253306644435	-0.020514367899374802	-0.04794332306195741	14	-0.2573990100317285	0.012854498158612337	0.011218760953934127
Si	6.786765710505706	1.2431346470907882	1.495992255256245	14	0.8977163349405587	-0.5763178855007681	-0.7065009182863579
Si	8.179678182650955	2.651006877935821	0.18985621473646633	14	0.2843285100444275	-0.1793759908759829	-0.30250133955776615
Si	9.52164882588314	4.105069207110197	1.4694972609325316	14	1.2929355890008447	-0.3864512706975171	-0.27682062539906305
Si	8.20841796004353	-0.1773706329957925	2.809157579984356	14	-0.3239399870487568	0.8405439514890859	0.1052096297004594
Si	9.659203233642925	1.2507865718583666	4.1116724740937824	14	-1.08592278703859	0.9339133840797315	-0.21218149498734826
Si	5.626278405015913	2.7225122305818847	2.7540211199353175	14	-0.7976705131650847	0.1579080327843425	0.2822217463450981
Si	6.8711990473950655	4.027058899147798	4.193369469578033	14	0.23317816947380554	1.1009601536140081	-0.22338534353042555
Si	5.335832969405436	-0.042339558028741606	5.482153500828293	14	0.09199260569170617	0.0030886688210938875	-0.6224450576074169
Si	6.646048944116065	1.3066439841339006	6.896989474770159	14	1.087586292180726	-0.23927888817745294	-0.14231839278615663
Si	8.105796964713031	2.641192096488756	5.522149964120924	14	0.8344542885383152	-0.7732861503088002	0.008190255997331706
Si	9.55338710912682	4.072593586362145	6.928072346898843	14	0.0015737735664626393	-0.5303064131335262	-0.952035048597199
Si	8.227441267656289	-0.10579973923822932	8.101749801077931	14	-0.5112241836684511	0.6770741036761991	0.14338848682040223
Si	9.439804362898014	1.3150332464058494	9.6101293264076	14	0.06540454846552288	0.2636719927918258	-0.7142528008266044
Si	5.51618572297446	2.7435673126511313	8.331373085216779	14	-0.8894126931986083	-0.30318808178877765	0.06857292155154136
Si	6.966643291016358	4.035284308640998	9.658908298641178	14	0.07803021825064203	0.16178628804925382	0.5026444052151171
Si	5.637600632027469	-0.054497434211917405	10.844645317336191	14	-0.02119284982238457	0.8935102637473286	0.1030185337466292
Si	6.710328389219297	1.457994795864352	12.358464754920327	14	1.0657509231388365	-0.998759231359186	-0.1416079963861997
Si	8.294604521665503	2.6989502009977784	11.142398586878873	14	-0.5873774950353852	0.1329647116314579	-0.5176997695277762
Si	9.647454989406622	4.042329978127205	12.550188891334532	14	-0.476841563553707	0.5225722712199888	-1.3879405016856363
Si	8.188968635206024	-0.058528212569142805	13.663896228491485	14	0.07957005322687873	1.5037325437732931	-0.3246352139273249
Si	9.583585176250262	1.3758390125996034	15.06826200987129	14	-0.43066425489331545	-0.4715376303887735	-0.002291369061315968
Si	5.418480311006431	2.7809093609280287	13.744528180913868	14	-0.3001593197216432	0.45225665448245106	-0.10347130539350727
Si	6.861892209562122	4.043214783132449	15.23118082778142	14	-0.6004464233776978	-1.0262788000428589	-0.5220832469880966
Si	5.4296714557949874	5.392853736410087	0.0161394987067765	14	-0.8783579687640997	-0.40279732988089045	0.1921973217759653
Si	6.824238841005602	6.606183563046432	1.3340893245743581	14	0.53176165874473	0.4780530683805607	1.1551300002726121
Si	8.187477574919408	8.053921174961097	0.1692435351698421	14	0.31121687237200407	0.7172129143816908	-0.0904702542316465
Si	9.586731149602242	9.52087871782302	1.526845733494682	14	0.11538863566292565	-0.3938773941937008	-0.6767468019689442
Si	8.327112912969305	5.4794990858125585	2.8795815042906763	14	-1.4469648522992118	-0.546417987511702	-0.37028236067070186
Si	9.539787328490654	6.826516394630214	4.260745732199622	14	0.6716701545143119	0.739422379247662	0.42723080084878967
Si	5.54982469845163	8.029179405369998	2.6880048353773454	14	-0.23346304794327796	0.6554248826594882	-0.0941235377810449
Si	6.921927867695755	9.517880211971912	3.9592074634678376	14	-0.581994114716059	-0.2225924146496919	0.7359372459862012
Si	5.4706018799264875	5.377926748266053	5.579924453907821	14	1.217881939379338	1.5635032862613076	-0.2707235062428639
Si	6.894007354196926	6.902609625081249	7.107343672128124	14	-0.1320771660749428	-1.3897078794827062	-0.8371125543288161
Si	8.113940447816857	8.194769023573738	5.553691624030106	14	0.04164907797054671	0.05584157933776412	-0.03387688369827109
Si	9.364727019675222	9.638131766295805	6.9421309153155075	14	0.04420681354303002	-0.4998884374224503	0.3764201032909594
Si	8.44764301701707	5.368128352096863	8.413152007090405	14	-1.644629886649004	1.2742122858384624	-0.3121046750390512
Si	9.68746783797713	6.864136992630983	9.681798531832412	14	0.15435707922668596	0.8176991664985062	-0.5118247938712377
Si	5.361885561226527	8.200553026663577	8.295948114451246	14	-0.10499879906420725	-0.09654860431900857	-0.14666124678241874
Si	6.854846540075916	9.556320073866429	9.651321914985099	14	0.09910376878617175	-0.5345070850055841	0.41435341985282814
Si	5.66696304997929	5.488658456144629	11.028635602593443	14	0.16548919393133113	0.7625114192436557	-0.7102642451434587
Si	6.92451674159999	6.837248751638272	12.580272261512848	14	0.9264736337253509	-0.5975009651229363	-1.660028750632435
Si	8.399748849788736	8.2625549181422	11.115575886997663	14	-1.5664716273534187	-0.03254068026339014	0.12656960136865358
Si	9.59307225213983	9.789580889693505	12.45073025463389	14	-0.11355286646433992	-0.6452224796386086	-0.3788657386714842
Si	8.197833070536344	5.269243200121842	13.85311341739083	14	-0.046377597764831045	1.0627507003407555	-0.33247065739047615
Si	9.468888231125963	6.796760730009394	15.085810642475307	14	1.0369131487575234	0.48742757548835264	-0.3454226004407221
Si	5.418939098786929	8.104961315541411	13.668074474349584	14	-0.1271738111188884	0.27674117824467054	1.0961074494327607
Si	6.874377791302796	9.356124748790899	15.079092678546598	14	-0.6189689232145766	0.9766865492962468	0.16223905969613192
Si	5.509205594599752	10.851576289877274	0.08335190854961631	14	-0.06016566426518915	-0.3421948348218082	-0.05608737700637027
Si	6.905444278153606	12.2605627196178	1.3934531863151207	14	-1.0631705618395357	0.6815673673336898	-0.14178077466371364
Si	8.047252366866013	13.737711905317909	-0.07296364237692972	14	1.0127460443007916	-0.4054483965764952	0.35133794245078676
Si	9.58738656071724	15.089710338609533	1.252687264091855	14	-1.2531392495239968	-1.6781360169601096	1.027912994584345
Si	8.259638338680467	10.986312429842576	2.7460087190544913	14	0.30321379284197914	-0.11216446959145994	0.25714961281567417
Si	9.583765414306885	12.317206625231329	4.1903545784490515	14	-0.4401135811659237	0.08770940133887149	-0.7113214836511035
Si	5.3465325558577455	13.563896877620971	2.7793527595299126	14	0.6483476581552486	-0.5518255362210375	-0.4944526065545932
Si	6.725632238754454	14.863626274491663	4.142263787886219	14	0.016748951387040634	0.9522170828538653	-0.05578475791018883
Si	5.518971220213193	10.85868750047498	5.368128352096863	14	-0.40016066137507866	0.20151552167724598	0.4214730675948501
Si	6.656060348897629	12.323203636933544	6.907508823165844	14	1.2702119030708439	-0.4930438979496841	-1.1192821072359154
Si	8.154838101392606	13.632092404136305	5.461491665428044	14	-0.6773996056097298	-0.7911679306998981	0.42659085273460484
Si	9.55749981387342	15.007341546732412	6.627042021781181	14	0.12560749375785418	-0.5531470843555937	2.0406654666484374
Si	8.087265215436519	11.059472695554005	8.333503171340515	14	-0.1466846438408321	-0.2613423142612396	-0.5140359444465652
Si	9.62828421429299	12.311439007419365	9.5565986235903	14	0.35711084522611525	0.4400721863702693	0.10924986460054009
Si	5.390985814732349	13.669844084360074	8.207631466705534	14	-0.7594330348438425	0.4824054354665074	0.35924691952609433
Si	6.944474010051618	14.922990136232427	9.53382308734419	14	0.14667924451965977	-0.2730806956003756	-0.10340831331316364
Si	5.3469585730824924	10.842810166214202	10.891015653722159	14	0.6224705115500863	-0.33610877141848566	0.6677744157332235
Si	6.755699223654895	12.151322072025842	12.248093523155001	14	0.5860613462220013	0.3486141134746219	-1.3457327225290214
Si	8.322770814332456	13.612856087911172	11.025063612016716	14	-1.336610440853136	-0.8309902383404796	-0.8851968518051616
Si	9.55535334247181	14.957972704495338	12.34933815514401	14	-0.23216078309862298	1.4973505461476215	-0.537665430780854
Si	8.011122829151859	10.98719723484782	13.710741737935823	14	0.11253316609436917	-1.6926643046821386	0.12172281072964243
Si	9.419240839165015	12.269967869117991	14.961659392017191	14	0.201238099413202	0.7055964034347297	0.9004460774589599
Si	5.5751727233240995	13.601058687841244	13.450707378061162	14	-1.515740119839449	0.8582974337247083	0.7900770107125593
Si	6.759369525898872	15.02626654267792	14.85214019470136	14	-0.2192990858451142	-0.21621067413455233	0.9941829209998545
Si	10.9290458836698	-0.16185377484826222	-0.09201972054543842	14	0.17746231718619668	1.892904558120591	-0.36928348625382434
Si	12.318337209404698	1.2687448364092568	1.1599138207641713	14	-0.08531647361740967	-0.39110497132698513	1.427732213172908
Si	13.613052711245672	2.696295785982045	-0.0625426056484933	14	0.3515865683352451	0.9446055826640992	0.3106689698282805
Si	15.014370830940743	4.067251985774928	1.3348594326344785	14	0.6642795122715461	-0.13143644662916187	0.13122021667173744
Si	13.755244152644053	-0.12618302491460492	2.602145979312869	14	-1.3871020642407361	0.993842763765999	0.46753621917902705
Si	14.85743263945495	1.3103962127672528	4.091240032583781	14	0.9383246294775094	0.5640282591809923	-0.4913788501443562
Si	11.061586396399868	2.641503416768379	2.7274441992222296	14	-1.0597491919900148	-0.3931603129199115	-0.8998413534876609
Si	12.227448073032626	4.154929607683518	3.9672034790707884	14	0.5460896573623193	-0.03383548890261671	1.7696879351999424
Si	10.921869131960595	0.0137800186927909	5.537748748657829	14	1.6421194594144113	0.3880109031847189	-0.7229876169307434
Si	12.316272664392459	1.5072489411563013	6.815341635119531	14	-0.2560388953173702	-0.41246802832156354	0.11264218095994345
Si	13.701402129547132	2.8547741935880775	5.454429610663962	14	-0.7150092200117919	-0.0031663162017623596	-0.585397229717807
Si	14.990759645523013	4.327958142042462	6.760614807017365	14	-0.8224335998350267	-1.4127542391303853	1.1952986357998174
Si	13.650493071189818	0.09577194917879052	8.144941393556167	14	1.1599107135048952	0.9304894431248901	-0.34011301084408435
Si	15.112895506802516	1.5847840760603282	9.53562546791043	14	0.3012026742605593	-1.1353504870447129	-1.4465285357263826
Si	10.868567823033546	2.708076800774098	8.238697953556345	14	0.1992251810580581	-0.25852155461450516	0.6128028984357975
Si	12.183191437492521	4.14704828902569	9.607851772782988	14	0.4541898685726704	-0.02984384789308681	-0.4486229113334858
Si	10.786706974770546	-0.005259674197842901	10.907335390485558	14	1.1787155207059263	-0.012835986200307268	0.06216624131479637
Si	12.286598926161014	1.517489739828114	12.079947801602778	14	-0.6187092415772416	-0.6808592849285211	0.4962608649262534
Si	13.748673656216218	2.8228392870098973	10.806598702110673	14	-0.7363537650480652	1.1498476643923676	0.930973839367206
Si	15.05087723004602	4.179622221440992	12.348289497360014	14	-0.30390670572575906	-0.8354842733295664	0.16607900549177307
Si	13.543333353887972	0.07606045989528581	13.462455622297464	14	-1.556547932149243	0.6480542950382198	1.4905522865706182
Si	14.846946061615014	1.3966319302228514	14.88307559932917	14	0.09134211604570872	-0.7816101037827797	0.4509749584803572
Si	11.003500586333347	2.687513277041098	13.714035178788679	14	0.9249597669128478	0.1746359011077579	0.7161556758740459
Si	12.330265691697624	4.239854502909124	15.148140239511427	14	-0.7910995392983823	-1.1177247887435018	-0.48075632851416444
Si	10.927079650324814	5.569274023289136	0.061559488975999305	14	-0.11620804692845683	-0.1929712244773299	0.9781636493026719
Si	12.34878105569626	6.881456231344753	1.561893842869093	14	-0.40571887685617475	0.2624270635958101	-0.1096339877353702
Si	13.612167906240426	8.314250469837509	0.11148543066081962	14	-0.031366456463678506	-0.3893036549396894	-0.1389654143381515
Si	15.02241600237732	9.709735430609118	1.3649591880906697	14	-0.28350652767357615	-0.3111104286117499	-0.4798384439148716
Si	13.781624450022642	5.4292126680144905	2.840945019061662	14	-0.423120117662937	0.6547201426912356	-0.6795102259670394
Si	14.970785991793509	7.012817004067826	4.1595338707663645	14	-0.16348501733427567	-0.4816053074908774	-0.19260329930601672
Si	10.990933078203298	8.32218094432896	3.0592788467447045	14	-0.41714229779359274	-1.2035017473237497	-1.3580971680136136
Si	12.214503703511456	9.782600761318797	4.295171201014787	14	1.2460314288664474	0.24445606585010307	-0.5501234644990995
Si	10.931421748961661	5.454937554278084	5.6031423926565544	14	-0.17030975929607675	-0.39822564751113526	-1.1353245188809793
Si	12.308800977681505	6.887617095825715	6.7759514271082715	14	-0.6690293722399877	1.9951749002190573	-0.6688504233097056
Si	13.711118599326946	8.45332870843966	5.515399229636465	14	-0.7836551609544254	-0.8625466994873171	0.15166358929329884
Si	15.039669699979589	9.802836579494299	6.871084350449942	14	-1.5720041317813134	-0.2115670008158329	0.14620101893011223
Si	13.446414435257937	5.562474132971053	8.098456360225075	14	1.3357817736084525	-1.2026689663105539	1.5565895840554296
Si	15.012207974261257	6.784275148268721	9.434610229811671	14	0.2657360761428406	-0.08618267899976757	0.5506772805850594
Si	10.986246888731076	8.377415716045247	8.160491022259446	14	-0.4187908905248717	-1.1140902742629402	0.42224131386451036
Si	12.387581393704025	9.58632151765537	9.619600017019293	14	-0.3167943711430013	-0.6189324135190305	0.16916253210222668
Si	10.88342927006608	5.466145084344515	11.050690186613059	14	0.31162696367056775	-0.3370371975495911	0.46239246587553884
Si	12.219648680764175	6.88352077635699	12.351648479324368	14	0.6804522789563416	-0.3892674023546753	0.007925689259888468
Si	13.724079354125994	8.056329810808707	10.930209238398918	14	-0.3476232094842368	0.7047697930743022	-0.00614288483089779
Si	15.018057518462596	9.525794301185488	12.331740366706365	14	-0.7232534692208467	0.5045637353366076	-0.01958745166048411
Si	13.619983683786753	5.509385832656377	13.757423394601414	14	0.4728758907079106	0.5604279404011889	-0.7398111303720682
Si	14.96416633953205	6.909016268730334	15.114861740147505	14	0.4791054217880974	0.13693218425097842	0.052600701081717466
Si	10.898192405431363	8.27559759933062	13.652819780648052	14	-0.24506001848980588	-0.16142350508858097	0.9165764209059729
Si	12.303524918205788	9.639983302695667	15.032558489381882	14	-0.493179652310588	-0.9363505348126997	0.22209259177545507
Si	10.764455767416429	10.831356856979648	-0.0967550658512845	14	0.41401686216642075	0.8471776603255998	1.0525752939257373
Si	12.181159663036034	12.330413159198498	1.3675152914391542	14	-0.4314859801536348	-0.7553709455485405	-0.30236301409154215
Si	13.54526681667721	13.68193641943175	0.0824507182664968	14	0.2824343767550744	0.31410396653599837	-0.8731221698901502
Si	15.128641758840295	14.94386498024505	1.3664338630994106	14	-0.32830443832970824	-0.6415887364896433	-0.24078786988984782
Si	13.688441374748086	11.051886311897926	2.6769939286454125	14	-1.3422511888150088	-0.26023699608410794	0.5023754675986295
Si	15.089972503055531	12.274850681924713	4.020504787997838	14	-0.9009754680443782	0.9354151666972298	0.5411773035376443
Si	10.875318557518003	13.705383752070732	2.7608373955312757	14	-0.13482156389366887	-0.049737261086668545	-0.23987435616959923
Si	12.294660482875466	15.047501862803792	4.060697874624967	14	-0.04759450191285714	0.21613585496973603	-0.020327158661090715
Si	10.715840647961603	10.921246491401348	5.633897559227742	14	0.5747410266079214	0.5760936851168512	-0.4245367966943385
Si	12.149404994514478	12.360873390767937	6.732399358516788	14	0.8499739944717931	-0.3576636328699471	0.7561358493812845
Si	13.60753087260183	13.64996874229782	5.422429162974282	14	-0.1934525353932616	-0.8003760872934764	-1.022618831619628
Si	14.884877979895407	14.997149903894224	6.703987286681711	14	0.5286459933177745	0.8645688738216135	0.7372284550779796
Si	13.525801106561829	11.02170463005236	8.220559450948832	14	0.4089453569224286	0.5829711347377153	-0.5470005999772476
Si	15.040423422761835	12.324694697220158	9.486912036788352	14	-1.2826442257358879	0.6037011856024733	0.16346573404437456
Si	11.052312329122673	13.730912014999827	8.20584547141717	14	-1.8189917079296343	-0.16649706721682916	-0.8307747797146513
Si	12.280946005294176	15.203375011227715	9.398136601262143	14	-0.6494493767849321	-0.07811377917354685	1.3945135324365947
Si	10.931569216462536	10.896799656811996	10.917887509436994	14	0.6236928150192848	0.6715092033212706	0.1529424570795405
Si	12.378979122819702	12.335525365895467	12.212701322945216	14	-1.091367359664536	-0.2621789519324158	0.3830188450951194
Si	13.520410350140986	13.77674163721592	10.771239272456638	14	1.0923279246121431	-0.23683376701799208	0.05267346336227764
Si	14.78790990543175	15.304046158491099	12.102772493682512	14	1.4261494407378248	-1.510271893044558	-1.4291226669300443
Si	13.652885321759552	10.96589637361045	13.743610605352874	14	-0.048331123587079555	0.002554907356631146	-1.6416584602305089
Si	14.880240946256812	12.500066326315213	14.88361631349904	14	0.24371224508098427	-0.7559304180662046	1.5740203925733733
Si	10.79067221201627	13.610824313454684	13.596421654202645	14	1.5416195804393993	-1.231061168139885	0.49539980175453574
Si	12.187205830571871	14.962822746746307	14.905195724460285	14	1.110179365960463	-0.11596867702315104	-0.3140479164400191
H	5.097024098489918	11.289408938500264	13.879034926988922	1	-0.09227337039266635	-0.2662209866062206	-0.12614948275934137
H	1.0113386751057278	12.056641382353519	10.716894221328959	1	0.13622744428272582	0.22618502011353478	-1.472165798205175
H	3.695851807767932	14.352887331964306	-0.7230970593694245	1	1.1511000497938118	0.9702718986330093	-1.3575140413270042
H	-1.3433060433789894	14.79757230379458	14.371754979437252	1	0.021609883105312592	0.08019868847765493	0.3158068095895324
H	4.0221187378685155	7.070722576077722	6.8513237053328115	1	0.05128918025790992	0.19870607489392017	0.029959547632493474
H	6.809778833281003	9.46433312387674	12.339261209250944	1	-0.04453154414496473	-0.14953291431449212	-0.044137136588854015
H	6.853478369373361	1.430156208754897	3.972020750766009	1	0.03290886254523534	0.1809613344163862	-0.03497654544369842
