230
config_type=divacancy dft_energy=-23111.60735121874 dft_virial="-43.982387702837194 -39.21965400683936 -9.966911246471671 -39.219654006839356 -30.98611862931928 -15.701631411040502 -9.966911246471671 -15.701631411040502 -44.97867383312246" pbc="T T T" Lattice="16.3999889955 0.0 0.0 0.0 16.3999889955 0.0 0.0 0.0 16.3999889955" Properties=species:S:1:pos:R:3:Z:I:1:dft_force:R:3
Si	1.164956818306347	1.3209371136425476	1.360707086956635	14	1.1457382667591751	-1.3096657713190483	-0.8272353961309353
Si	2.7076873831240365	2.662981013122303	0.1423027045139535	14	-0.1080990378592418	0.5767598585053016	-0.4681730819668277
Si	4.254321145322654	4.144342819118831	1.2449067646594094	14	-1.6700560613810125	-0.1902101144740229	0.12397561321115617
Si	2.6521078204182866	-0.26941901921807404	2.6111898478745146	14	-2.0762490500582227	0.003926849155462162	-0.8290981619353827
Si	4.025410098923466	1.0504684951287615	3.6834375283893	14	0.5684359050313222	1.7828980172243312	2.1116035479839828
Si	0.087182341500078	2.828555302020871	2.6900081949868873	14	-0.7384062784251394	0.04969355229622603	0.7276138067332858
Si	1.3997554607549203	4.201988780438014	4.145015218667647	14	0.9271027831971911	-0.7298277855244654	-0.3459869580584946
Si	0.055973162441641494	-0.0859523423254155	5.503262307274957	14	-0.3423755835258146	1.626348299380623	-0.5591485583938833
Si	1.4775898085275634	1.3731874785822105	6.733786281585313	14	0.597775559171128	0.5509747574706005	-0.43675443206515024
Si	3.1328078978653875	2.7438657588481097	5.246241679737481	14	-2.4496411626136436	-0.6186423928389178	0.34461450203859956
Si	4.010338509036601	4.171976800576249	6.8655109931971685	14	0.8767183749014413	-0.31986607066898226	0.44178762783987213
Si	2.709573381858519	-0.04718276834005349	8.150925730675464	14	-0.32450691577184954	-1.1726397417238845	-0.41261638109853604
Si	4.235329958065866	1.0921080671883359	9.375545708947438	14	-0.751838761059721	1.4000239253587363	1.7893067543453325
Si	0.154389496403637	2.778420535661628	8.116731753619845	14	-0.0561850790085359	0.43865010801769544	-0.21403397637051497
Si	1.5271505752719643	4.1411776212427	9.635764334339038	14	0.25584117731825085	-0.8870966415262189	-1.6588581263801714
Si	-0.0656819559269775	-0.07885114709036399	11.035191795314049	14	0.4887840906552628	-0.7935217776204937	-1.3857373215368014
Si	1.3191987148090243	1.23426317180133	12.346223315603314	14	-0.13996917385513732	0.2042262380162781	0.452774989314993
Si	2.6539610191747784	2.576405471215059	10.964852242512348	14	1.1139645472127853	-0.5878693474831295	-0.8212156672448726
Si	4.027640497426854	4.068296070146698	12.231062592876913	14	-1.4573379767133492	0.6944262363713464	-0.2021271876329092
Si	2.68336619944371	-0.2626786237409235	13.711456799522706	14	-0.9183052321232404	-0.09217386861677662	0.863693155349571
Si	3.9251569661939745	1.2941395316239004	15.099699468002786	14	0.863568199631012	0.053513443470370035	-0.48844650452672733
Si	0.044739169979724	2.725432171217167	13.721673992666902	14	-0.24384979921561215	-0.7068346477569131	0.9152332754867275
Si	1.5040593907663005	4.1961831843336075	15.083496278875232	14	-1.8945112418351515	-2.925079673994146	1.3909278689571163
Si	0.058646360647908	5.283158054966352	0.182433477585942	14	0.6168768148155721	1.4063185054035228	-1.3426060013491894
Si	1.4079390552636748	6.704348301338391	1.439525434069008	14	0.8221551491288548	0.5887293822127191	-0.5744101253532183
Si	2.7038333857100936	8.35856599134749	0.15622629517113298	14	-0.3053138716674761	-1.0603662572668502	-0.4512986606401639
Si	4.124039632742403	9.586957967088429	1.6480840941247814	14	0.22170692597743288	-0.6993712432335872	-0.7467227756936903
Si	2.9291200345412776	5.501605908386412	2.7590521486579425	14	-0.962782268835418	-0.9172724191161371	-0.7888338812902678
Si	4.27664153034553	6.714909894251492	4.09263365381602	14	0.0012618984911286772	1.1602143610432047	0.7570177385060952
Si	0.0534475641363345	8.049016199057426	2.687794196472495	14	-0.699247573067688	-0.9876921656191406	0.6201899411311149
Si	1.27952714142891	9.262533384779449	4.138258423201501	14	0.14433439646768473	1.435962321302702	0.04823136470065781
Si	-0.3234569829582465	5.381656388873325	5.278566058047612	14	1.5450062403670983	-0.20816645691940505	1.3070640698455904
Si	1.1316156406784956	6.8256754199271	6.603767168828989	14	-0.018540754684651828	-0.6620161682582199	1.368471577980411
Si	2.7457353575935963	7.949829065612643	5.437055551700124	14	0.6976504024428122	1.023672727690357	-0.23408422698862574
Si	4.18512959175064	9.451789257787519	6.743921474784532	14	-0.20906762933411696	-1.311759936602309	-0.4002074554919054
Si	2.70731018337714	5.654076606077575	8.165242921068536	14	-1.2430497180266715	-0.9822401367877666	-0.8002336480587402
Si	4.230803561103108	6.721715889684625	9.473207643415643	14	-0.06885291492090549	0.27346790406159	0.6569598325356165
Si	-0.0572523615832905	8.220855283752277	8.190646504022565	14	-0.4791126208829937	-0.6618637017127351	-0.6489071306729128
Si	1.41597504987147	9.436799667845632	9.47875083969612	14	-0.13009715786789675	-0.580342693768928	0.7895699887434261
Si	0.141236705229246	5.273121261701106	10.934249863046745	14	-2.4408155864917034	1.0871052383753261	0.7462545774148914
Si	1.3108183204323238	6.628957551926077	12.345009716417646	14	0.3865101490093485	1.1484207009396856	-0.03166470468081568
Si	2.721446973891261	7.932494277244399	10.845214322790177	14	-0.43304638397243267	0.24388116670051796	0.3166406190448564
Si	3.9084617773965555	9.50451522240805	12.102257079306256	14	0.883483467219815	-0.13986195876328716	0.7537040979694885
Si	2.669885408489409	5.404206373742137	13.743535177997906	14	1.5393012147722218	0.8842884802955532	-1.7346309141597234
Si	3.959301743282605	6.817606625341314	15.007597129804058	14	-0.06634300190737692	1.317875824827345	0.7963852176155426
Si	-0.020007986574509997	8.044260202248731	13.740812779824653	14	0.10688136237961966	0.8741341569441605	-0.5781971063792645
Si	1.2236523789212415	9.6563135205504	15.079265081714393	14	1.1769640837618416	-1.884485473749766	-0.5840828806781474
Si	-0.124869516211737	10.879473899801775	-0.037129575085811994	14	-0.1266477629703861	1.195117115764215	0.701033977044127
Si	1.468422214679079	12.117656668973032	1.325939110286175	14	-1.8610673322727933	1.8082619712075922	-1.388716718381789
Si	2.484401532950304	13.719476394141507	-0.263547823157685	14	1.010080579415394	-0.9946596039262101	0.6162978018974747
Si	4.022786100684186	14.971910753749851	1.1211196477213756	14	0.03693675613977932	-0.7194806292740614	0.26308346678404393
Si	2.468181943833754	10.875570702420847	2.8184529087996437	14	1.3674001983935054	-2.116072900361996	0.5950116209519688
Si	4.092912453628944	11.883546826062268	4.036266891638487	14	0.17850644305670882	2.4375171154764854	-0.0032061683342246546
Si	0.10648512854778149	13.464636965140432	2.821290106895865	14	-1.426201891286356	0.12927877504449364	-0.6431128877234272
Si	1.3534090918536374	14.914559992232588	4.250467147908712	14	-0.2658957417832219	-0.023435367882617728	-1.7868143248479809
Si	-0.2367994411060245	10.870289905964297	5.12860455867276	14	0.1280042781372962	-0.5798595830792721	0.7832718091511913
Si	1.394294264419419	11.926334397351527	6.485916847907326	14	-0.6214608384908641	0.6832532410921109	1.3995986645387837
Si	2.6740346057052706	13.467834962994555	5.306905239031836	14	1.9098250022324856	-0.7546528358326231	1.0445668150745402
Si	4.0490752830439725	14.946654770696782	6.691457909987927	14	-0.2872755109623812	-0.13557644041566433	-0.09443361308265477
Si	2.7897529280575184	10.6188124747073	8.15145053032332	14	0.4781847089729523	2.3281317536255735	-0.758105316056518
Si	4.187474790176997	12.276605362317415	9.425500075427731	14	-0.3855261870033278	-0.4009661886718811	0.30930165601902576
Si	0.046920368516125494	13.570679293985336	7.960226658635789	14	0.3971959198304159	-0.6826220347360147	0.8547804187572778
Si	1.4162866496623845	14.827016850974607	9.522932410049998	14	-0.7198056169865281	1.159939252773949	-0.1680029636028399
Si	-0.0063139957632675	10.894676689600605	10.68214923220792	14	0.17505704815919818	-0.0968267979146486	0.9822429650036189
Si	1.0829404733398513	12.273423764452291	12.347026915064093	14	1.5394739930497356	-0.3767828862516323	0.29298645009949414
Si	2.657536216775797	13.521725326833767	10.987205427513215	14	1.1613201934414006	0.013711704672349705	0.33654945887035903
Si	4.290679920925679	14.966285557524394	12.428026460712868	14	-1.456468428894075	-2.2032639668683256	0.5042366907398848
Si	2.622587840226387	10.774333570351626	13.609202868135764	14	-0.49359874247777213	0.9409175891928787	-1.0602713834805366
Si	4.004155713185298	12.172449032206995	14.872871220206026	14	0.28460798919272756	0.3132056223371386	0.6619824867785259
Si	0.5018232632733045	13.876079889059536	14.254591635075677	14	4.476249882255766	-2.2404087254285048	-2.1996006560081787
Si	0.016383589006504502	16.106379992513563	16.135932772683454	14	-0.7699061752549335	2.4582872755842375	3.0960124121092942
Si	5.497768310961464	-0.050446366150158004	-0.1082399273703	14	-0.9746990848837724	0.5977616752023992	0.36782181287932014
Si	6.644439141537829	1.2311471738921849	1.495646196411609	14	0.7525229321854124	0.4339401001817162	-1.5176447946606146
Si	7.9737074495900915	2.6662282109434123	-0.23205984428632498	14	0.1776469225481833	-0.0008638913875697545	1.5328536539608864
Si	9.455610455223471	4.019604502819059	1.30379912514225	14	-1.4026683071805084	-0.045444800754681325	-0.7900703258387269
Si	8.126063347358285	-0.31017299187189146	2.531518701334375	14	-0.1574709448799173	0.7437744892230765	0.38898612343265104
Si	9.31617774878373	1.3864058697125834	3.6920639226009326	14	-1.617091548896494	-0.9859602690754891	2.9064157633646586
Si	5.212703702241684	2.706850983685266	2.6807586011934252	14	1.939023502690215	0.05197772226264558	0.4945549365463352
Si	6.502251236946845	4.280659527649428	4.13181322752627	14	1.0044933104441802	-1.6448443168327045	-0.3685000704627752
Si	5.327405225276211	-0.028421180929201498	5.2826168553295	14	1.0364848026111868	-0.09712478902125377	0.4521206430110152
Si	6.726488286482316	1.4220594457888003	6.798074238447674	14	0.7689026728484798	-0.8164447242128058	-0.1382359917588255
Si	8.117469753124643	2.985142396949905	5.510035502730099	14	-1.561636920909412	-0.9610688842500714	-0.7527445614640093
Si	9.323082144150835	4.199955181802572	6.962221728303633	14	2.097605936400033	0.2890413460962589	-0.5279456242285663
Si	8.327127212443115	-0.022615584824794498	8.295344033769837	14	-1.6945221853864776	-0.29168547080749924	-1.199630948264267
Si	9.695985093930515	1.3797146742024193	9.49201843079348	14	-0.1984875309417076	-0.15491115242317788	-0.5872473971061857
Si	5.430823555881834	2.7408481608729374	8.262642455712811	14	0.12493694949035955	0.1763726827515179	-0.5694183243741507
Si	6.897244971903461	3.910511776020993	9.730654670667	14	0.6866604698623712	-0.6653663184903728	-0.5827063108897401
Si	5.3656499996137175	-0.057973961099092496	11.090049758503996	14	0.8139733777790796	0.2922739968152811	-1.8492086232046745
Si	6.898556971023102	1.167088816875762	12.236162989454513	14	0.4088188585406773	1.3044078609393455	0.7142803116535299
Si	8.40815955806988	2.547885890351884	10.956553848080626	14	-1.0122025126361123	0.7921184683367569	0.7839801486668923
Si	9.649031925436397	4.082318060737851	12.338958120478308	14	-0.14182654033841227	0.634775307391251	-0.12695655271933587
Si	8.310432023645697	-0.0954643359428055	13.649333641207754	14	-0.7698997474916331	-0.13333006569745093	0.6339037026877207
Si	9.548073593180101	1.4743098107284636	14.9600699616951	14	-1.0272558200645152	-0.6337810609639497	-0.7201136354038818
Si	5.286684052600385	2.720134974771621	13.405187005031744	14	-5.568342293620584	-9.765339027733896	-3.912324724398113
Si	6.910020563330956	4.345324684258684	14.861784827645067	14	13.085549509765315	12.770023721987274	11.576056918743292
Si	5.439909149785341	5.554758272720827	-0.11806352077860449	14	0.4354984471162579	-0.06114114162365333	-0.04809843855560615
Si	6.938359744315179	6.705348700667116	1.3399119009103408	14	-0.34000785263649025	0.755205880586987	0.1224234369293828
Si	8.258821258276859	8.150072931247697	0.033324777638855996	14	-0.22080163979420875	1.045845939971314	0.7095039693002908
Si	9.662348716500745	9.648605525722514	1.4379674351144354	14	-0.5142534599566497	-1.8002300952979817	-0.6185164086782305
Si	8.127047346698015	5.291292449508119	2.7763049370812083	14	-0.8267545994360678	-0.7113376816146204	-1.2562641709301048
Si	9.527294807122802	6.501513237442047	3.9865749249821216	14	-0.7183388014013837	2.5335738673477497	0.756456980435771
Si	5.708754169388572	8.147596532909377	2.8664884765674628	14	-0.5504399675640098	0.4937159848803709	-0.8082197582936522
Si	7.124860419172006	9.688801898750485	4.068853669772545	14	-0.5154809056364884	-1.894278299693146	-0.3768121968522819
Si	5.5327822874668575	5.597332644153146	5.701866174010463	14	-1.3938172771158988	0.11361791542893966	-1.0392929638418524
Si	7.304669898518668	6.658493932106972	7.489136974740052	14	0.8191289581670406	2.90522277049611	0.5440798243335595
Si	7.866336721636552	7.8981855002658135	5.451159542236254	14	2.298634490729642	-0.09961798985020134	0.16591599741447566
Si	9.418562880082636	9.504498822419057	6.691621909877883	14	1.3603250307735217	-1.4674064251470493	-1.0626452850226293
Si	8.709132156115297	5.319188830789465	8.894304431863489	14	-0.0273676163592522	0.9500632679271775	0.6796269541485741
Si	8.401468362559717	8.215525287328738	10.928575466854303	14	-1.9640174746179067	-0.7463252828111955	-0.3755227875342277
Si	5.516382298471358	8.152598529553005	8.192729302624993	14	0.9424741363536965	-0.1769452679063149	0.087127817315454
Si	7.01576769237394	9.559996385179828	9.413511683472022	14	-1.8030462269551397	-1.509978015706465	2.2323616799975055
Si	5.456817538439701	5.228726491490288	10.86669830837428	14	-0.11053773125540226	1.5812770802289593	0.2806520865471477
Si	6.541217610800152	6.903722967556685	12.199607413983543	14	0.7997340822950355	0.47741234893477985	-0.10231122267305647
Si	9.51447001572832	9.574051175748972	12.390388485968195	14	0.4366844980004422	-1.0762009236020462	0.6246109567291096
Si	8.12032335120986	5.804005305474437	13.525874524049629	14	0.39864113813087115	-1.7191999113597907	-0.9002514447862245
Si	9.49854562641369	6.879631383722295	15.014731125017102	14	0.771664811293915	0.21825316020087798	-0.31135236962237584
Si	5.25426127435628	8.29070283688411	13.734400384127412	14	0.43872878384049196	-0.38346184654178095	-0.9431588217004518
Si	6.830365816779813	9.485868434920167	15.104111065042575	14	0.3369932316486166	-0.8251828827538613	-1.2927882646660003
Si	5.393841580696981	10.692005625594215	-0.08841234067474049	14	-1.319954563478685	1.4548013242044913	0.7830100706296004
Si	6.854801800383108	12.118689868279747	1.04763129703254	14	-0.7237556060898716	1.0735380298219688	1.28496953338743
Si	8.208752091873597	13.802033938744854	0.09395553695521949	14	1.1390469651634898	-1.6665272193291094	0.12235607396999493
Si	9.803388621862043	15.005055131509755	1.2734099455335883	14	-0.34740646530574837	0.03465824260506409	-0.19585111954642775
Si	8.26183885625203	11.025696201685653	2.5631378801176994	14	-0.676169074603507	-0.1996560983097149	-0.007851898537200218
Si	9.374955309343603	12.516373201431627	3.8334154277531476	14	1.3834431242596332	-0.23329361210268024	0.5745368808455016
Si	5.3434772144918	13.532614919526779	2.63679023069649	14	0.16683825289281282	-1.1038678166205635	-0.7422418533417363
Si	6.749317071164052	14.857389630594275	4.017915303952522	14	-0.33703051267575873	0.1907191933274122	0.4951038675321868
Si	5.598792243173746	10.674310037468071	5.352284008582385	14	-1.0137788573078952	1.0454186222671054	0.9931799328144648
Si	6.815917426474777	12.08628349002464	6.845667006512614	14	-0.9486352760323673	-0.230199543960414	0.02069225561655174
Si	8.005802228054284	13.427244990230692	5.507755904259724	14	0.44342593614987047	1.1695539011186429	-1.2529579865989262
Si	9.38428690308204	14.772011287883702	6.801501836147732	14	0.8046677762938678	1.6462504543322933	0.2677093994760543
Si	8.216263286833536	10.724641603695261	8.072353383398024	14	0.8980976298595367	2.543671112161035	-0.14769637378431036
Si	9.587597566659253	12.155819443365559	9.490247231981966	14	-0.02941010242557783	0.5580452971010077	-1.2036804391435
Si	5.603695839883399	13.738188781585372	8.016921420593233	14	-0.5242203497302037	-0.01176923460297783	1.2351942199420232
Si	6.895900172805831	15.10129026693535	9.737280266221182	14	-0.12528250604538746	-0.7723713510358916	-1.084220715316652
Si	5.53076508882041	10.805378749520107	10.894529089699645	14	-0.34482687533804385	0.7868788128048272	-0.6315832801362871
Si	6.8788933842174975	12.265797769569382	12.28803615464728	14	-0.2739129623925076	-0.568240243916459	-1.090176937901307
Si	8.241125670150712	13.452041773591887	10.783714364057051	14	-0.23696669316304378	1.5302064439232619	1.153547742058593
Si	9.660971117425122	15.037969909423724	12.226126196189268	14	-0.5946372680173553	-1.260472041897059	-0.8401055780320008
Si	8.084768175067618	10.837014328292426	13.577682089286412	14	0.5170438805606064	1.0159149316078742	1.969494443170886
Si	9.493018830122207	12.48486882257127	14.961299960869761	14	-0.4672991632685094	-0.7368157926740958	-0.7043897837079843
Si	5.7047689720626655	13.499929741458748	13.809840333506711	14	-1.8466274905737778	0.08238927021042108	-0.7424549979727767
Si	6.862099795486105	14.890042008684315	15.162199826064638	14	0.3619059566481915	1.797338116033879	-1.4660193138268292
Si	10.89917028658537	0.11412752341968449	-0.2379802403137005	14	-0.7581857916530387	-0.12528944802975187	1.5033761885759207
Si	12.053926311736518	1.4403290335297874	1.2592731550194676	14	2.002169849353052	-0.12397175655317595	0.5842458887554448
Si	13.689595614191706	2.8993212545364537	0.21318345695250449	14	-1.0766889193918103	-1.2528520570597361	-1.2826138866931103
Si	15.002906732951345	4.259995541515098	1.51371898428465	14	0.2675078248189547	-1.5898874548356032	0.3300278502258035
Si	13.491910146839949	-0.1449267027532335	2.638840229320927	14	1.9473027189316237	2.176887768720522	-1.5064131781800796
Si	15.109539461400086	1.336959902891151	3.93912975681814	14	0.0034604506503872995	-1.252222907587896	-0.10931799889152401
Si	10.72321480465265	2.7194789752118007	2.674280605540203	14	1.5697377024416026	0.9104461344911439	-0.4242760866148756
Si	12.19962381397254	3.9865421250041306	4.099160849436229	14	-0.43975156953684685	-0.03828864331711318	0.5294435501880844
Si	10.622764872055216	-0.0924795379456245	5.239911283985218	14	0.009601278597028971	0.1739692134982435	0.4622610823936793
Si	12.078378695328809	1.3278907089766394	6.657821532558158	14	1.1559571248541036	-1.0821797719135184	-1.2495594995867545
Si	13.707865201932693	2.5609894815592886	5.2549172739161	14	-0.955019330542295	0.6051739147298542	1.503433781335092
Si	14.885089212007673	4.06752527066391	6.81685222584752	14	-0.24243697684219082	-0.37644684278628887	0.3317546045588149
Si	13.567579696065186	0.09505433621791799	8.122701349614207	14	0.07179400229662287	0.1280469584856107	-1.1481754174921435
Si	14.949360768881037	1.4830018048960782	9.279523773378788	14	0.9113159394209499	-0.005526076664594266	0.7556949048188791
Si	10.79712955505537	2.6588810158734284	7.9498782655796285	14	-0.25294611272776407	0.7786430482433288	0.31219569216738446
Si	12.034803924567765	4.038956489833748	9.325558542489157	14	0.30907231342446856	0.990318549703672	0.8575947506407118
Si	10.896907088103992	-0.130609512360162	10.66166564595254	14	0.8795679309277613	-0.0736904495807641	1.379862088769731
Si	12.393799683679259	1.1470644303122566	12.004923144617964	14	0.14983887584758976	1.3894885641988977	0.16349350198183218
Si	13.65320403861069	2.8626836791205066	10.578271701910422	14	-0.40755670293901664	-0.503649964505827	1.916191316115704
Si	15.03714990997395	3.9743405331914787	12.322574531471803	14	-0.4026623468515828	0.11248251531956227	-0.9462678022535748
Si	13.782567151807195	0.1090435268310795	13.641970046148774	14	-0.3252119128506341	-1.3624343655781714	-1.781258680472205
Si	14.90004600197157	1.2151571846215723	15.211744192820042	14	1.361508510552386	2.090846757623895	0.0808147253123624
Si	11.069484172303639	2.4950123258303925	13.604594471228028	14	0.06742980812620353	0.9842826228540923	-0.9799503103896426
Si	12.135335857110178	4.0269844978670335	15.037510709731851	14	1.0453875118927316	-0.23746085960557622	0.1325926726916325
Si	10.716589209098471	5.394743580091734	-0.0550547630578935	14	0.8532644950605186	0.16217375362100014	0.10682248406778827
Si	12.245789782994873	6.6142959617641	1.394163064507455	14	-1.1261045352029284	0.30286823628695125	-0.8524144876416776
Si	13.590588880625871	7.897332700838048	0.059909159800561496	14	0.33305378407708575	1.8168031830811242	-0.41081120805326005
Si	15.181568213068322	9.321146945449366	1.3175751158984699	14	-1.742538862792903	0.4022525126635511	-0.44341205218114166
Si	13.503193339268853	5.374817593462201	2.7823401330315525	14	0.27970206313135304	0.554681262900126	0.9743237035070307
Si	14.86075162833835	6.843305408097263	4.107606843768912	14	-0.3109065399598622	0.6508035779570541	-1.435803426993917
Si	10.859531513183247	7.99058303826646	2.6829889996968133	14	-0.013158917028517868	0.735118091831202	0.2961062292949618
Si	12.094729484357321	9.6184131459818	3.9424097546172403	14	0.6032630692559201	-0.6392495448693726	0.3112605811624466
Si	10.84888792032517	5.535816285431025	5.505312305899395	14	0.5213229711449289	-1.3304824684330951	0.7370901296117557
Si	12.16747983554136	7.127533617378273	6.629252751727996	14	0.08181771349775217	-1.825635444076897	1.4043811775447914
Si	13.60149487330788	8.329800410649382	5.388478784295454	14	-0.29908074103984106	0.5642622297651259	-0.7434381886472012
Si	14.954051165733752	9.552895189944776	6.781116649826326	14	0.7036799015290914	0.5148299017694269	-0.13952205863996356
Si	13.36518743187172	5.525303892484909	8.18162651007504	14	1.6320337845750665	0.8498240990316284	-0.7899415134621876
Si	15.042906306111371	6.901738568888229	9.727358272878906	14	-0.3737086156203312	-1.0088857867731211	-1.2184444972233865
Si	11.020759804998008	8.29427803448513	8.26329845527263	14	-2.042593281417484	-0.6654439658710413	-1.55486180128029
Si	12.192457018781505	9.80999781742723	9.314340950016234	14	1.2510039465556138	0.9163581340642922	1.2667833341264265
Si	10.808822747209161	5.745014545057622	10.761771178781071	14	-1.128371221653171	-0.8712403779063338	-0.42715726723663355
Si	12.362803704477765	6.769833457397422	12.212989805003872	14	0.02943247104186312	1.276692631140809	-0.07881723358913936
Si	13.553032905826177	8.425117146691228	10.718590007755921	14	0.494742884345238	-0.6187416375042755	1.3716016415971595
Si	15.154459031258762	9.578364372854788	12.20257581199173	14	-0.7586917851800437	-0.7516240737654887	0.1986525959032611
Si	13.590096880956006	5.308118838217503	13.661207233240495	14	0.8643801546911146	0.7614783491260203	0.4440226896946768
Si	15.137583442582391	6.7026427024828585	15.204036197992158	14	-0.9810232326397406	-0.7773366696301616	-1.0094208337902442
Si	10.951912651194899	8.19758369936766	13.620240060729735	14	0.08266566403233702	-0.7847969888271031	-0.22311614880340602
Si	12.14091185336865	9.492264430628413	15.10314346569184	14	1.287226192526924	0.7369638883405364	0.33562823183415
Si	10.693727624438743	11.078536966229155	-0.0024435983603294997	14	0.8081945614615148	-1.00181216181633	-1.4586379275632162
Si	12.396374481951554	12.144126251211768	1.0057457251380328	14	0.8052395901170687	-0.15249611319596276	0.8079024838971459
Si	13.57186009319301	13.700091607148826	-0.295659001610874	14	0.25167830069439906	1.0204737584510288	0.7580070998332883
Si	15.019487121825797	14.837808043733647	1.3630194854050006	14	-0.017985653046031856	0.10651780808735073	-0.4173109623025944
Si	13.664405231094618	10.70948801386342	2.5532814867314038	14	-0.8125800958060913	-0.09244614867018029	-1.06216808787521
Si	14.580885816130143	12.265092570042576	3.8988513838451926	14	2.0947615225843528	1.0885314304964124	1.216839870393082
Si	11.142447723344619	13.442365780084543	2.4599819493360044	14	-0.9677565862983084	0.8658945357246819	0.6443711866671076
Si	12.113704271625116	15.064209891816525	3.81219384199297	14	-0.35706765065673673	-1.2325081862140643	2.587198639678482
Si	10.711915212234754	11.07735616702148	5.2057009069406055	14	-0.07461219083803718	-0.32840548276879006	0.7960334904077463
Si	12.04528351753589	12.519587599274745	6.702478702592904	14	1.3482686037062837	-1.7316600019622923	-1.1805278928460987
Si	13.569104895041768	13.83914711384167	5.53076508882041	14	-0.1998574158562825	0.12332589489675477	-1.401512852449634
Si	15.080527880867047	15.170268620650422	6.918122157894733	14	-0.7101765704520415	-1.0699569943320666	-0.5123413289300556
Si	13.71381839793806	11.187842892884161	7.86841952023898	14	-1.6945391546815904	-0.6945211101576599	0.451335427446242
Si	14.97847074934805	12.259811773586025	9.450838058425779	14	0.9585489439257944	0.5454090857840761	-0.8463888452133784
Si	11.035388595181994	13.738057581673408	8.219264484819712	14	-1.4240406201542395	0.04670695635634202	0.9808995624738414
Si	12.523621996567638	15.092024273152893	9.521194011216474	14	-0.7739890905033288	-1.347738441789269	0.46050527457055007
Si	10.669308040824443	10.798999153800857	10.951092651745125	14	2.2436416332580595	0.6502348494602374	-1.005114489489528
Si	12.276277362537508	12.17589302989605	12.059846707763894	14	-0.08844859411841406	-0.6842361746560035	1.1854505310920542
Si	13.715409196870622	13.505292537860276	10.912798677440632	14	0.1232328208841654	0.9903283199038885	-0.345682282078057
Si	15.18135501321138	14.75638209837099	12.348027314392818	14	-2.9046332160462	2.8892094123411636	-1.5371234885660563
Si	13.774793557023328	10.945615055420628	13.582208486249172	14	-0.8850700963128783	-0.6130993468792105	-0.3347329729616744
Si	15.086513876850404	12.402130878088974	14.897848403446174	14	-28.21521259552392	-23.441328733191956	10.728756873804453
Si	11.041653390978276	13.578469288758198	13.458290169399174	14	-0.33049681983619844	0.9765410247351264	0.8875429854097967
Si	12.19768861527107	15.321607719100896	14.80251526741533	14	0.8967534559981631	-2.5162237915368584	-0.4655513258718727
H	-0.6122788291568966	12.973832854473203	14.65131228887352	1	25.557797069552194	20.89659986830221	-9.488358993804985
H	0.1907777919868524	14.828994689647466	15.353620497620112	1	-1.8899303034862438	0.7008699405247015	0.6508496007422847
H	1.3860139099755908	14.63366590071436	-1.2222124598874367	1	3.9225566951301736	0.5868792148243405	1.9260633321029448
H	14.119673845606396	2.404262986723793	8.270117570696959	1	-0.3183758580254244	0.3622432856661949	-0.3622556269717315
H	7.445344084125369	9.223116011228765	11.7263611315349	1	-0.0824484056327845	-0.18197100747560835	0.013023933999210096
H	15.996539426217302	13.961038392051824	13.203327740480633	1	-1.6607311766058992	-0.5981254866052002	-1.810132964549064
H	6.225839262421089	3.6511262700703657	14.339066338392596	1	10.617735774748864	-7.025430873117879	36.86372774981849
H	4.56834649460959	4.700835445708636	4.787089547831568	1	-0.7754139970717548	-0.3413761948878731	-0.9387136377124479
H	6.511533630718297	5.6202909887479455	6.905638486271359	1	-0.084818707627429	-1.4127246714192039	0.33303244390292847
H	7.6610432993897835	4.670101866331068	7.908053373644405	1	-0.6545874736567161	-0.7183010061531775	-0.24601364145304877
H	7.186635897720255	3.799036130821881	6.460926544675983	1	-0.41439147221156625	0.22985475873698216	0.3663709381471606
H	11.735591045341565	4.8441910295161	11.508475797737384	1	1.0664682615231575	-1.08772590319961	0.9448107568686469
H	10.209409709419235	7.3305064411821785	9.233675964142968	1	0.46812474518680897	0.5560791728626906	-0.6147893344061439
H	3.5368741067343152	0.6625431554292044	12.883555835049675	1	0.7263279969626798	0.9507716074428784	-0.91458021473541
H	10.25294348020779	0.6211610631968593	2.890024100774905	1	1.3392509660169283	-1.1480046960988857	-1.1054675583507598
H	6.058121494960809	3.6332847220421614	13.968871026796075	1	-17.234186066801428	1.366247057657419	-42.25169800636207
