69
config_type=vacancy dft_energy=-6809.941554175116 dft_virial="-7.130429848339257 -20.611603686329612 -3.5455439506706155 -20.611603686329616 -44.364602231441026 -2.1709601661638165 -3.5455439506706155 -2.1709601661638165 -25.08227948155988" pbc="T T T" Lattice="10.970240611074896 0.00795344034991 -0.018945643426613198 0.0112774299030448 10.889521419220223 0.047753552887114796 -0.017826676646349997 0.0444515038590832 10.869445838750796" Properties=species:S:1:pos:R:3:Z:I:1:dft_force:R:3
Si	7.341471932652779	9.253052249557886	11.410752600860649	14	0.9954653883335443	-0.861814448692139	-1.4875199249560356
Si	0.41511363792628886	-0.5033408774712766	1.814798466622381	14	1.458219608727628	-0.6482509845952111	-0.034193386763181316
Si	3.0543032007237967	2.3415992505602543	1.663360574255074	14	0.32569322376656584	-0.29067116975870083	1.5312636824309067
Si	4.526777915502265	3.8033812504296782	2.863579701132955	14	0.7015867646879588	-1.1050998902899785	0.9191362133627122
Si	3.009136435746349	0.08237789555247471	4.495024490546659	14	2.0666351730451247	-1.4867797037343649	0.8044296919412218
Si	4.746921465203988	1.228265700117301	5.971074413890694	14	-0.2807320479226043	-0.9029361929615233	-1.4873823708214076
Si	1.4801922944835193	1.0658334106207805	3.1470052103635817	14	0.1870885355048311	1.790239037134418	-0.7039411258296184
Si	1.7711269484307168	3.639013806619056	5.594800990528345	14	-0.03443147111582703	0.07428128958333412	1.2141792906077928
Si	0.5024435099945558	-0.27557957745372297	7.530553183939647	14	1.6004693530017366	0.9804056531418411	-2.5459370272796815
Si	2.0936285328701434	1.1036698461612489	8.53055953411955	14	0.4533884550443802	-1.5945432123493273	1.1125815496610774
Si	3.3670006615208576	2.5000186180153996	7.264468368724334	14	0.0017352389805679388	0.9514537216843134	-0.7694508325027355
Si	5.007735069263258	3.8241688009387054	8.444923470589252	14	-1.5933062535798042	-1.4474600471838721	1.962838108607555
Si	3.345231272513463	-0.5265780876080758	9.984478049791988	14	-1.085383626252955	1.2775038148693159	0.05547468260857898
Si	4.445657212038204	0.8180437022627707	11.594248891482497	14	0.33392127501210367	0.9246224378948442	-1.8249898395310076
Si	0.7673786416944611	2.0634679900370294	10.083721626991293	14	-1.1781951289891284	2.1276755273402284	-0.26897001241452295
Si	2.0247078583897165	3.8323098327782477	11.123655344754003	14	-1.0549327403937814	-0.8065624238042847	0.08825678966153101
Si	0.6855832670834765	4.982233596935807	1.7828881669122871	14	2.05725269551084	1.029804042547314	0.32675560448485097
Si	1.970553157303743	6.604094764984435	3.172758998729718	14	0.6688622503941781	-1.7115609003430987	-0.6340939644814118
Si	3.471287268415133	7.648173047939137	1.6605510900156093	14	-0.8576556858367994	1.9884992823658247	0.8891398989241407
Si	4.609560613742894	9.311940618934875	3.192126997264568	14	-0.8206461674164599	-0.10740715341758995	0.38155305795210304
Si	3.2397236753971947	4.965163868405519	4.385311991794362	14	0.1301226118105662	1.145804087055371	0.3214928090050399
Si	4.467710730845686	6.388714503282616	6.031783846851249	14	1.104898058522347	-0.7232257012833891	-1.1263372202344017
Si	0.9236928157659545	7.730230611825104	4.857653101347328	14	-3.26658365281643	-0.9344636006182431	-1.6658242791345808
Si	1.9031869690268775	9.335809716194646	5.9101642251254445	14	0.3215180058371773	2.467947946714162	1.052894368095968
Si	0.6452127008935885	5.188971485799476	7.096610187369792	14	-0.9588824162858173	-1.5072475018564677	-0.5049108345548277
Si	1.9183083789280029	6.393139907195931	8.50442836872164	14	1.4361690381704422	0.30578181283574307	0.3053310980731211
Si	3.1681986605870183	7.912579412984054	7.1461606692628585	14	0.5818280213123775	0.09988924146147699	1.4819884489702688
Si	4.612506129237998	9.337448673419855	8.474273311019802	14	0.2323644146399787	-2.259994377315265	0.47506158734056847
Si	3.434166093993029	5.007610008270169	9.796828417768106	14	0.7356245995792713	1.3534493809263821	-0.7091987790987893
Si	4.78320451156715	6.599142788468642	11.012492577292385	14	-0.2230372158700775	-1.1182222976229503	0.0017259830014154055
Si	0.6618172902916902	7.479507455260797	10.064362404666484	14	-0.8217843957416895	1.2417970755146956	-0.2905742390881312
Si	1.8125111668803724	9.085762327803517	11.304542906941078	14	0.97364981680262	-0.2908107807775848	0.5363207426984167
Si	6.089373337142128	-0.3240099955402715	1.809073086596701	14	0.40144210026664046	-0.24305558478221842	1.3191981442934972
Si	7.604616717504264	0.8842338783941045	3.184785697565037	14	-0.16693904022136263	0.9789226395931795	0.4857563570302564
Si	9.15842166776153	2.542611759398242	2.243620544633149	14	-1.1293207308479014	-1.0009518699762083	-1.0678893114336037
Si	10.972997438054112	3.1444063551651076	3.842299353857735	14	0.555565723130257	-0.7625034488171633	-0.03181717122630046
Si	8.894566009896701	-0.49595789077404984	4.707266160132464	14	0.64403205787538	0.9862531179714538	-1.0832889467486304
Si	10.180145846714836	1.2191373446481146	5.9850691778277705	14	-0.4492572030159663	-5.2708222135100735	3.100851489432345
Si	6.038474609981469	2.4404961674629284	4.35276431983002	14	-0.4482205333508826	-0.6945763889220431	-0.5022592536381589
Si	7.387075314079781	3.702218974310099	5.718858204593113	14	0.35838637057544076	0.4525705864420411	-0.3272795957490972
Si	6.039939140032108	-0.3548704411241774	7.240275648719291	14	1.146431950974551	1.3712126333622208	-0.7190643673227295
Si	7.660091141175195	0.8956506306315545	8.609134039645387	14	-1.2235095747040783	0.8658495413815793	-0.375996642244731
Si	8.781643612321806	2.503440242905244	7.1580645011576	14	-0.056729124894279226	0.43985467086018476	1.2118622104932755
Si	10.418427628519375	3.682620600261666	8.501429098940033	14	-0.5057256178307825	-0.6420790462741957	0.6178749179008536
Si	8.895716790438366	-0.4386722767558498	9.99316320665409	14	0.3683625163281473	0.27795088329780016	1.0403936540294079
Si	10.20012708292632	1.0552185845758524	11.560585543816657	14	-1.3064737440640843	0.5216027074037609	-1.6595006455996766
Si	5.967204105262489	2.144530551109567	9.999649922900852	14	-7.360725632592006	-5.963592915165776	-8.845876541106056
Si	7.601710694954345	3.861560940845834	11.600151989761512	14	5.735864460528557	6.097543902798043	4.796146034856995
Si	5.962783089454195	5.269664349024024	1.7555096826622592	14	-0.011230073817342779	-0.6608859103594827	-1.0570366758772585
Si	7.125300715020991	6.724992543434342	3.081363547359828	14	0.36231784772047915	0.22454954001938857	0.8397584788137806
Si	8.808869609922368	7.782497330725947	1.821358683628238	14	0.75043108089694	0.18628532220281685	0.34861437058515393
Si	10.41260132207822	9.076141407545764	3.3692320129238533	14	-1.5916820863490666	-1.1946286057533868	0.5363284560143771
Si	8.446497703265408	5.327683873606927	4.382895242954246	14	1.3462577422353958	-0.4741043648298774	0.22698154854171668
Si	9.993402358377717	6.432287289111316	5.905962614568183	14	1.5644556236718905	-0.45146655381756956	-1.5833481055643386
Si	5.834300471476111	7.92303846130075	4.7372358203971805	14	-0.1978730367701922	-0.2730421290205734	-0.8763447932984237
Si	7.448184064597214	9.091658843925002	5.976378535834392	14	-1.0896197793784312	0.729215091126674	-0.05236133117641167
Si	6.260806727062236	5.097908433384899	7.15145052986524	14	-0.009426443435258903	1.8414145745371773	-0.37829829572732754
Si	7.684925621539508	6.535579990218417	8.522445927936388	14	-1.5112733385667556	-1.649265846651763	1.0820262769259057
Si	8.846312213037233	7.820906413971609	7.18709730100041	14	1.3561647252549902	1.6386417823583792	0.9058158309200891
Si	10.336377743817193	9.141918004778903	8.66825717264098	14	-1.5491012398104982	-1.9757723110310919	1.292576919808684
Si	8.828283683559935	4.893329492191386	9.843363174485738	14	0.6068793288887083	0.44969223403613534	0.34773145301821506
Si	10.230665002791211	6.189756724620543	11.40204221239468	14	-2.5864159952190287	1.1032646353124567	-0.7817803109549735
Si	6.178416764220955	7.922885974651284	9.704177968362313	14	-0.21350098623764827	0.5963102862491756	0.5061056271971004
H	11.204960348628928	2.085158393154053	4.972411920873361	1	2.8620719099080647	-1.866491336056178	1.9245715767961948
H	-0.052248069454505316	3.9960091875994777	2.7163390312178897	1	0.07212567488292197	1.6375092104648539	-2.386529525872629
H	6.813955887596542	2.96375465362289	10.932748641778549	1	33.41562843227865	92.16962115078772	25.51345450164826
H	6.708074204527264	2.6805474526170396	10.852488006898533	1	-31.537889281778423	-92.56155453224888	-22.03216787085701
H	9.381417485726669	4.506036440095955	3.3484323951260198	1	-0.7774407993956275	0.7425254462585487	0.6812804319799615
H	10.244417323925896	2.17636625303431	4.946521004225329	1	-2.0149844953792018	2.411899650508658	-2.423589180846711
