220
config_type=interstitial dft_energy=-23278.43750344126 dft_virial="-36.417553761694215 -7.977938626808411 -7.682607231919055 -7.9779386268084105 -47.44858045729124 -3.2366724493955084 -7.6826072319190555 -3.2366724493955084 -41.09496450237429" pbc="T T T" Lattice="16.3199774331 0.0 0.0 0.0 16.3199774331 0.0 0.0 0.0 16.3199774331" Properties=species:S:1:pos:R:3:Z:I:1:dft_force:R:3
Si	-4.823189810600941	-1.522670214485663	2.4486820540171905	14	1.1424415955176812	3.3281724238763215	-1.2051511113866247
Si	0.1496378730840939	0.0712040615406153	-0.022488928902811803	14	-0.3230408715183011	-0.25156285806552436	0.3638399420700068
Si	1.405966055861565	1.3453046997427325	1.501617443596964	14	0.8077906408157195	-0.23606294964301167	-0.29909179679271775
Si	2.860239244925106	2.5646681336342323	0.0137740609535364	14	-1.1338335349058253	0.15763395295721472	0.023335351885663966
Si	4.238428699195535	4.008137497637061	1.1491385709968704	14	-0.35721317521785717	0.3493995861499271	1.6367566479376465
Si	2.840018792885495	0.0032966354414862	2.9224999588323826	14	-0.8291418707258252	-0.9179877006162022	-0.9572572206129519
Si	4.190350045677622	1.4601973408717563	4.089329385366733	14	-0.006506696233698743	0.2127792769742827	0.3350335351735998
Si	-0.11969071449435541	2.6508376144809995	2.6959623520835216	14	1.6248066646306623	0.31790483153077326	0.24095293485140132
Si	1.300849081214968	4.054551513456797	3.973718665230653	14	1.0411343894721425	0.43172277895362043	-0.9198250124779799
Si	0.0273359622004425	-0.083558284457472	5.554879678836546	14	-0.15207933702356677	0.5707126187923134	-0.2667542338496193
Si	1.4269045869082322	1.4230530722340207	6.811142581704285	14	-1.1901973057341118	0.31334703312974677	0.02034052840875548
Si	2.6939713148366833	2.7934089373365616	5.375262007207848	14	0.077057311997498	-0.4514107608321224	-0.36541371563646946
Si	4.26140722742134	4.0407284925709614	6.497488935417536	14	0.09156297399270943	0.9877818971948137	1.6427979741083987
Si	2.583370827772564	0.023974046849223902	8.1717227803244	14	0.8844103506877283	0.2275340790750165	0.3368767605776139
Si	4.007321498765405	1.3600089994099556	9.513257565280085	14	-0.8477145071164468	0.5924412869634168	-0.358824486921994
Si	0.0204978916559736	2.7300874248961335	8.309055390423936	14	1.0927102479732491	1.151084108940827	-1.1305412345433759
Si	1.5967465920545039	4.184001574456147	9.58273170921279	14	-2.0465229587887985	0.38453271190762256	-1.053658500597116
Si	0.1920208544778546	0.057609520338843	10.968673152763943	14	-2.6436619122826577	0.35248696941836094	0.07519506041411475
Si	1.2090818481086465	1.4569333453851363	12.389049748698936	14	1.055133029498221	0.45610019982554034	0.32241866403082525
Si	2.6385976314061748	2.7465706021035645	10.896065573164082	14	1.0103826842905115	-0.9772542493509355	1.269292732918891
Si	4.168660795669033	3.9922255196397884	12.248730582729142	14	-0.7789222702810968	0.5119194105470193	-0.6629006284883507
Si	2.4940679112586412	-0.1765005559389765	13.585271454590298	14	1.1943223871097572	0.9433385419623301	-0.5932118472278651
Si	3.986774647177133	1.1188160529261706	14.925516961328771	14	-0.6354057424157512	0.48730287688032553	-0.830355689547467
Si	-0.1629549746695035	2.8423199097035625	13.732738770675791	14	0.5530702083065213	0.13111582979573944	-0.602863519489169
Si	1.4806136326405643	4.006358620096853	15.02386114534063	14	-0.5728813461298582	-0.7364236991127733	0.22837817295162108
Si	0.0350389915488657	5.241878831647121	0.051391608936831895	14	-0.3333970266373255	-0.7289461535101867	0.42010883911197955
Si	1.3112285868624196	6.6988774569419895	1.2929502121373475	14	0.7757271576997489	1.2129233056589006	0.2146543840842667
Si	2.6635019169690852	8.246680436674627	-0.0899067556789479	14	0.49607960200118306	-1.3445194179284434	0.17916978822930701
Si	4.187135010123301	9.449625973268429	1.2663160089665282	14	-0.6074262029903038	0.24440181552784798	0.8834919518673714
Si	2.9012350282370534	5.494153042807981	2.559021421442379	14	-0.6534988676641653	-0.990893191742725	0.5267660011076823
Si	4.133964523646262	6.8663693853378955	4.098958172052262	14	-1.5477619510492329	-0.4794386370375885	-0.2681020072584409
Si	0.0490088922315993	8.217304477295047	2.634321797318703	14	-0.3946831786010352	-0.11171992548160635	0.057851412366523865
Si	1.3738809802280902	9.55844758279234	4.030006267397415	14	0.29938721679400276	-0.86179542251277	0.013083069421573501
Si	0.1235259091911339	5.473965230723237	5.334755823218893	14	-1.7316777425890013	-1.011260202536278	-0.04356943653416531
Si	1.420817235325686	6.598656475525323	6.731386851988725	14	0.5111470505088467	0.3866839557289905	1.170426791374833
Si	2.5903884180687977	8.058135737390023	5.474813869549758	14	0.864386582454415	0.9620119656815016	-1.0498697197973457
Si	3.98160121433084	9.515575002075586	6.683340838425679	14	1.071022717487268	-0.4645869042662852	0.3905663247624141
Si	2.8991623911030495	5.438616159603142	8.11776893493057	14	1.0017661390310992	0.03451631759139191	-0.013067899900184626
Si	4.193940440712904	6.9074794084918745	9.73760829505291	14	-2.042229984235747	0.8347551078607724	-1.933586900490762
Si	0.0364751495629785	7.9906526307041545	7.943422616012763	14	0.7927334767293364	1.1774870465839598	0.9254346500654791
Si	1.4184181986430204	9.481678408947037	9.399180923022715	14	-0.7070447070615691	-0.36755158971017254	-0.10228705428304709
Si	0.025344924953604298	5.554961278723712	10.815738644238364	14	0.550546411324264	-0.5850604149208678	0.3274773137482166
Si	1.4174553199744675	6.808515065337556	12.32652791515273	14	0.008310583726314635	-0.03207993819001959	-0.09038309376129348
Si	2.6604011212567964	8.342707183890987	10.934254320357535	14	0.8703461474759864	-1.0434602113447486	0.6843385046477455
Si	4.1690035151951275	9.72185951682997	12.212320713075895	14	-0.12358737630781383	-0.3775791575692822	-0.3428301549464168
Si	2.787909104941607	5.281601656719287	13.6646518248249	14	-0.002309623909089019	0.856120735960671	-1.1074622218581307
Si	4.161985924898894	6.700607374549899	14.880408543703682	14	-0.8801767686675724	1.3731638451896813	0.46247345569312354
Si	-0.0391842658168731	8.044508556233383	13.740539719888812	14	0.6714276992826219	0.18909682587039872	-0.4773601554967809
Si	1.3409309457906615	9.60771759466287	14.89181620792942	14	-0.026648478201206777	-0.28376286687399493	-0.12141222120696857
Si	-0.0707634221499216	10.937012396543729	-0.12282415016151059	14	-1.0229541037533754	0.09022908455261662	0.17534886861303495
Si	1.2347858125657791	12.154466393075555	1.364040033835931	14	0.06347339125955966	0.7407683528827596	0.871868241825514
Si	2.5762389976342996	13.596189519493043	0.0794619701217639	14	0.7820525910083772	-0.11893418989940985	0.18204531241936064
Si	4.120549502196254	14.879576224854594	1.3995686247077899	14	-1.7197529561141547	-0.2155072197189598	0.6040832518530473
Si	2.7664972945493798	10.846077482286496	2.7039917809806067	14	-0.1667603484016123	-0.32877726459808343	-0.8377422180217206
Si	3.988961524153168	12.174344125589073	4.127387572740723	14	0.7047602799846177	0.13770942938925917	-0.16234421790372597
Si	-0.15171051021809762	13.685541395939266	2.833866161393216	14	0.11289954860249028	-0.43888716392821303	-2.1684571143757574
Si	1.239681805795709	14.868119600696557	4.118362625220218	14	1.9869573905053322	0.729353159482366	0.7995211947745273
Si	0.0162220575685014	10.908517715945536	5.312919693413406	14	-0.499343877315643	0.6044542623507446	0.9202908967619908
Si	1.31586346045342	12.227759411727607	6.952440946320065	14	0.7620537624966693	-0.36607423259321553	-0.24608974617052518
Si	2.7291898261373126	13.515111871605402	5.529763233567006	14	-0.8233540555396399	0.9604186517146058	-0.07950320448855487
Si	3.9617724417496234	15.191940592924128	6.743904274679913	14	0.33825050215016905	-1.0617083742439675	-0.42724622748071056
Si	2.9082852584881524	10.776211658895395	8.232547336217563	14	-0.86089707831391	1.4083283384322824	-0.38996108657005124
Si	4.2893959887191055	12.35112212114441	9.414244262193467	14	-1.4961315851153394	-0.6130939475580381	0.5736614194839912
Si	0.1006126608750615	13.699086977208738	8.398537826689623	14	-0.6371173272273739	-1.5135253697166733	-1.068709494030731
Si	1.361428837446635	15.059716135761152	9.6427892261666	14	1.2278249178734146	-0.4931148604565202	-0.32505404698397705
Si	0.20445667728187678	10.877934078235908	10.872140486247156	14	-1.1021528893720247	-0.5886856734222765	-0.5528105266691864
Si	1.3900867178191587	12.260872645939367	12.263810241877326	14	1.2336734111451555	-0.008303641741950236	-0.0117252687020033
Si	2.755301790030273	13.608609022319632	10.809847132385014	14	0.49970614605525193	-0.1344387263114988	0.2769707779497597
Si	4.090390183899885	15.045452475484622	12.146420644201038	14	-1.3406547895217291	-1.001899579397215	0.9560349171437534
Si	2.8555064514695068	10.982577773536944	13.698450498088848	14	-0.8198555525305143	-0.2606627711251245	-0.8088507075392166
Si	4.112242633682805	12.257935050001409	15.12998995858808	14	-0.24568891085111405	0.4972018894734277	-0.0774964567861793
Si	-0.0676463064601995	13.449391322482308	13.586185373326552	14	-0.2687638097678471	0.9892235159478209	0.08884660122197299
Si	1.249620672052467	14.84027771919569	14.95316300310044	14	-0.2208371210476268	-0.3795141714332256	0.12433531084544491
Si	5.2598308068235315	-0.0908696343475008	0.017184936237054298	14	1.2350800628658085	0.02756919101635181	-0.1563800248925785
Si	6.686604833912299	1.2425214818690684	1.3020893994998834	14	0.5151358633025245	0.13721114917821448	0.17581089623906557
Si	8.142232581102787	2.561126698531249	0.060449196412202394	14	-0.49282612532906755	0.992782954153034	-0.15396421433376734
Si	9.50938973062844	4.092136421485227	1.2941415704899637	14	-0.7705862326121128	-0.5856641104500385	1.0877840101798453
Si	8.060453174185524	-0.0008486388265212	2.7179616816633403	14	-0.39789783158281633	-0.10289126403328186	0.7613971021979036
Si	9.569202447920752	1.3320855180219213	4.066644616734724	14	0.41366564917968845	-0.2303093301575843	-0.6384000516715957
Si	5.601652734159811	2.7446285247890256	2.6783530964332067	14	-0.5606799087225636	0.6145180827948683	0.01811369409097523
Si	6.986419139335779	4.174976626935642	4.043551848666888	14	-0.13936007900479422	-0.9117964790052857	-0.7742230610874623
Si	5.526646117877283	0.08486388265212	5.465331962661127	14	-0.19590974074772713	0.46063125873123745	0.34353540913573344
Si	6.9234729863763125	1.446619119647417	6.909911085129406	14	0.050472082987166864	0.0388949099516041	-1.167837688317444
Si	8.359647320466545	2.8066281190573723	5.308611219371067	14	-0.9520831282666857	-0.10301956218875727	1.8668484625851465
Si	9.58020211271066	4.193206041728415	6.823627364440607	14	-0.4843993276422823	0.055370552843112986	-0.8096369515461178
Si	8.198895542750511	0.0285436405304919	8.221759831134284	14	-0.3806014918731162	-0.31011206841593647	0.29053130162928475
Si	9.522315152755455	1.368756507314097	9.585914104812247	14	0.9282852345339272	0.31762843770885735	-0.5538168572914922
Si	5.4113617972898655	2.6926657166420354	8.201604659004406	14	0.039367479109447316	0.6759235340454328	-0.9595969264542866
Si	6.808400825495524	4.1523897781682315	9.428589522357163	14	-0.7252139370274596	-0.11887942535609068	0.6531535682196694
Si	5.29093668381102	0.2078349126105285	10.960447884137661	14	1.499873314687751	-0.5619171246026188	-0.1486780217955429
Si	6.834692309140249	1.3610208380108075	12.275609585561458	14	-0.2151544640690355	0.4283859984691323	-0.5128056705508742
Si	8.101432637520038	2.74570564329961	10.82040615778423	14	0.020635434188976468	-0.2287221868434569	0.10178568874561819
Si	9.484289605336333	3.959047005518296	12.230272688252306	14	0.007094193799352579	0.6448599537884677	-0.0681448325157367
Si	8.017042034213476	-0.1138808025281718	13.595781520057216	14	0.6327492763989743	0.18647481266491173	-0.0831883697439231
Si	9.380886228320211	1.3211348131643113	14.90113491504372	14	0.88575940964921	-0.05246777493666581	-0.24266863343153613
Si	5.325616635856357	2.5535215890474245	13.573472110906168	14	0.7216953793968369	0.05291154771492336	1.119796842521009
Si	6.681708840682369	3.9178553824771516	15.045795195010717	14	0.6200097066481726	-0.39832334951330084	-0.7417754548366614
Si	5.511990778142359	5.456780294486182	-0.059894317179477	14	0.6085760012894741	0.7599865938192704	0.8420570469699931
Si	6.864035628564962	6.892856708711816	1.4795691540848461	14	-0.8859923517912154	-0.9088703040404251	-0.44385993872791146
Si	8.10277087566955	8.108205428154774	0.0078825491001873	14	0.921405728028807	0.0182052254403725	-0.8876286032169577
Si	9.607179035407576	9.416578018966401	1.253863866185073	14	0.20468903697390478	-0.21113325534832392	-0.8018513875261775
Si	8.289553017391382	5.617907431683179	2.7838127906058987	14	0.20591288310629524	-0.8850371861647803	-1.777719811109553
Si	9.594237293303127	6.971731159645989	4.011042453620153	14	0.04441661573715411	0.45140896105839823	0.42709658915107795
Si	5.439889117842924	8.150066170270675	2.8307653656809273	14	0.008597004858979131	0.8671754603951796	-1.2774750184897303
Si	6.691027547796669	9.589863539351056	4.106351121829456	14	1.1476000041214942	0.4246260140489477	-0.6316413871165224
Si	5.650743226278576	5.59122426858006	5.18854514539575	14	-0.48692646706145576	-0.7207468986442344	1.9827520906436977
Si	6.92546402362315	6.884370320446605	6.736658204699617	14	-1.4077269568979	0.6369718026662534	-0.24274139571209635
Si	8.187585798389373	8.256831462638015	5.322189440595406	14	0.01068294260521527	0.5627823015428486	1.0896429193263124
Si	9.442347263333266	9.545048881319763	6.957500139324325	14	1.0125025606269735	-1.0566427825422118	-1.730749059347364
Si	8.095508485711822	5.5464748904585	8.121799969356546	14	1.114273594072267	-0.8116125888741197	0.04589217308038709
Si	9.53749273176824	6.711264319813713	9.53824345073016	14	-0.6502410201130057	1.9090248742568556	-0.31510721183192014
Si	5.393262942316556	8.221302871766158	8.192188032025506	14	0.29661890769579935	-0.4331366297691699	-1.1431643332231747
Si	6.901816376322588	9.545212081094096	9.325822624460933	14	-0.2556522010772199	0.7426468024296596	0.9674837920238407
Si	5.421871862756781	5.5098365411211905	10.86685281355883	14	1.3106049960924984	-1.4866411211576087	1.1613592742422667
Si	6.702043532564011	6.89708358286699	12.297657875073575	14	1.2854341321187808	-1.1426233726638155	-0.621666526916476
Si	8.079645467646849	8.296211568184086	10.914099148227658	14	0.4491659287771011	-1.4591683465907628	-0.7502295062398403
Si	9.653739931024209	9.431657678114586	12.122887236742507	14	-0.07575016205273472	0.9930202671740835	1.160855080488986
Si	8.007821246963776	5.204506083325323	13.566079161128973	14	0.2941578456833536	1.1958542516595014	0.13799739318511575
Si	9.480878730052815	6.652871440558082	14.879510944944862	14	-0.16829067028816447	-0.004825450464853914	0.23308355279802412
Si	5.4213006635466225	8.222445270186475	13.583280417343461	14	-0.526639245615399	0.5314387279165194	0.28312214742821395
Si	6.806654587910182	9.58087123178542	14.925745441012833	14	0.8052079655216307	-0.536918524685351	-0.2615595726607921
Si	5.56374142658272	10.863539858139912	0.015177579012783	14	-0.17230647968770374	0.5705737791050254	0.18790743254929826
Si	7.03322483461391	12.269767033640408	1.2285189412314685	14	-0.23644758699890586	-0.05740532559347818	0.19966535428886742
Si	8.26233129503297	13.765444005451723	-0.2465295791044086	14	-0.6786370786003171	-0.7784990663454006	-0.11365828178246598
Si	9.349029632370799	15.226310465398237	1.1670905461732801	14	-0.11857449226512111	-1.1677212172464413	0.5374016353750068
Si	8.282943426530975	10.723253332124985	2.521452833391383	14	-1.1994478855654724	0.6841469573013944	1.7774220771134799
Si	9.623368453021211	11.959720102366374	4.096183775888635	14	-1.559304671273506	0.6118906702682089	-0.2822135188080736
Si	5.3641970625082065	13.347881062848426	2.603640239744475	14	0.777950906691145	0.577442744078333	0.4580619531848134
Si	6.5394639173754685	14.900645315720727	4.003176224497398	14	1.7867135375194312	-0.515961445220824	0.05313986186735251
Si	5.468057398892454	10.990917282005258	5.528849314830752	14	-0.39687556010752545	-0.44316059808083114	-0.3433757434953522
Si	6.770489517918432	12.449286785404507	6.830661274714272	14	0.9772038556866606	-0.8106378828472515	-0.3844159837260879
Si	8.240805244798711	13.593349843419682	5.385217193442039	14	-0.30708202079614194	0.3294616928343069	-0.8459689837145983
Si	9.542274485156137	15.09202969107869	6.750448585630586	14	-0.5413526529204784	-1.1460539984924893	0.743348199960996
Si	8.244346679901694	11.039877214304557	8.120869730642859	14	-0.9517172599796286	0.5724985085476881	0.4459559037848962
Si	9.594057773551363	12.350061322611259	9.503987818098084	14	0.19932519705501184	-0.6894616891086726	0.009666841782692748
Si	5.338819497599735	13.770323678704221	8.004638851364321	14	0.7601087213219774	1.3047464755100089	1.0244988238297206
Si	6.717433271283425	15.077113231704836	9.727832628570484	14	-0.43490735000315583	0.15556369895343145	-2.0206679236893894
Si	5.616340713849601	10.998587671398816	10.758096483944653	14	0.3377411661862477	-0.19797125299342186	0.8787390065725458
Si	6.940462082884169	12.354614596315095	12.331880867750787	14	-0.4154322556451622	-0.8994721427636878	-0.5639485549160678
Si	8.155174323207236	13.637870741857181	10.76070768033395	14	-0.3932667566801656	-0.5005744083218658	0.8518388171604964
Si	9.395117248641874	14.854100740081524	12.224838135767083	14	1.1250123296629295	0.4558927116262044	0.42521531138832563
Si	8.337272631405765	10.91489882712188	13.666577582162004	14	-0.07834877819980839	-0.042170498129472746	-0.9702117347685181
Si	9.806119560317065	12.390649106487379	14.809465601801996	14	-0.7168102792885556	-0.40963955535886865	0.0432999846966138
Si	5.314453771292118	13.582709218133303	13.570714034719973	14	-0.1302354833341207	-0.43240489319505576	-0.6466738685918323
Si	6.532397367146937	14.963297709086396	14.847246349559622	14	1.174750104970662	0.0767379807167356	0.9322817606435654
Si	10.86525345577039	0.1221223911318873	0.0175439757405825	14	0.1475667900761749	-0.13273331215264458	-1.5928074591476955
Si	12.156310550525497	1.4104866896105337	1.3739952200701222	14	-0.2252249693869915	0.7875408724247652	0.06620339088849289
Si	13.591440406060013	2.633979077792608	0.017429735898550798	14	-1.5080954523910526	0.09737187224251999	-0.7913003426238858
Si	14.80749088453259	3.8412657283836134	1.4036649390434979	14	1.136285598049651	2.105352419619107	-0.04032701561492657
Si	13.598604876153143	0.30247446174507536	2.7198221590907137	14	1.256476287119017	-1.278145562757225	0.8854009975675814
Si	15.060727974362004	1.446602799669984	4.1922594830372955	14	-0.621684781764249	-1.00067007683312	0.67931122241526
Si	10.89737117135873	2.8196677810264195	2.724293832907383	14	-0.21739929612405678	-0.1368429668963693	0.25425146289880324
Si	12.333643425313563	4.135580201412139	4.111361354901418	14	-0.8993351028501239	-0.5408142634664393	0.43755198893546016
Si	10.936000557942878	0.0916856332191558	5.573370213268248	14	0.6488991602464204	0.9637220078299322	-0.5020605071969115
Si	12.361615866633896	1.4739714018252925	6.893786947425504	14	-1.5222702131315606	-0.427149039699609	0.26863988249141596
Si	13.627638116006628	2.7155952849355405	5.538869780974676	14	0.6080586948990602	1.0509259298628626	-0.8560094071003086
Si	15.001192696686056	4.1050944835671075	6.841220300113488	14	0.6041074202430566	0.029538143470521208	-0.17026322228978205
Si	13.646569289829024	0.021526050234258902	8.107373109305685	14	0.5710522618051048	-1.0297022267766363	0.9158176877259973
Si	15.003754933143052	1.3832160073198236	9.527488585601748	14	0.2960452940988743	-1.5810243405759887	0.08052727573756986
Si	10.944829665734185	2.8950987167222078	8.150702649390567	14	-0.416332142507214	-1.0652382447379987	0.572998331421925
Si	12.193960738463657	4.259628349881131	9.50965085026737	14	0.3540214050734254	-0.6716349303714257	0.5497596530962985
Si	10.840920369417637	-0.0925016320908108	10.969978750958592	14	0.028203739809364352	0.08530181831708485	-0.694332648137693
Si	12.211015114881247	1.3300292008653507	12.18970122435362	14	0.6601030087894976	-0.046930899629726915	0.22960587574199184
Si	13.536034082674636	2.6350888362580585	10.695558330421015	14	-0.5086384230479783	1.2993188721791764	1.109623750100779
Si	14.911775540330101	4.100965529276533	12.077240259862128	14	0.13022931268135238	-0.3759750449600417	0.26111965654051483
Si	13.773179674755012	0.0543944847845223	13.538808478838265	14	-0.5665893371903918	0.629619984113822	0.03610371801605134
Si	14.965239786400938	1.3638768340616003	15.096093365459533	14	0.5725751274862286	-0.2731645136338125	-1.1069747402894305
Si	10.880349434896006	2.674991181081988	13.574141229980924	14	-0.18641104925297206	-0.3339032772748627	0.22630560495304974
Si	12.298033234554538	4.04577136559779	14.871367276205744	14	0.006673560968976354	-0.6858012064643777	0.061661019119387275
Si	10.885147508261337	5.225575174191454	-0.0655899893036289	14	0.022400497991258123	1.434714563890834	-0.5738539952724703
Si	12.259762887473917	6.532152567485441	1.3290010422870655	14	-0.1486939626485278	1.219458541161653	0.06109974682799895
Si	13.763681447888949	7.879611504249342	0.012272623029691199	14	-1.1933759632414107	0.8242567706175438	0.29732287633245585
Si	14.884292698332759	9.531699139779487	1.2938151709413017	14	0.6732650111443996	-0.1934401940877249	-0.02415013516161889
Si	13.68035164311554	5.389786787123307	2.764408337437943	14	0.5677774449588323	0.5050653579845684	0.1123200214633289
Si	15.04049120234496	6.922314267978562	4.113613511787186	14	-0.4428587503162458	-0.2886592798456849	-0.263172684138653
Si	10.975348023534082	8.171167901091675	2.6403438689915166	14	0.4391373324758635	-0.7516284446445329	-0.7311051106475149
Si	12.254671054514791	9.535044735153274	4.046897444040673	14	0.7882006180499153	-0.6773188729026772	0.5939713517394369
Si	10.807284895928017	5.55953087240498	5.310080017340047	14	0.7843277621061762	-1.1214590621104847	0.6954171403617315
Si	12.250754259930845	6.618191488512744	6.765250805162408	14	-0.20087274534720898	1.544667625796435	-0.9225393283644603
Si	13.608298942748403	8.18141684691966	5.591420108309258	14	-0.0930871252264932	-0.20652352061983043	-1.2799741328609142
Si	15.081307465905143	9.512555806250463	6.795654923120273	14	-0.7561679881977863	0.8429145105942625	-0.33021605513523833
Si	13.603353989586173	5.486401053527259	8.127250841819201	14	0.5871867190206301	-0.9415318262538621	0.37025253584898815
Si	15.018899872200969	6.813247858793154	9.359164338356754	14	-0.29134942734215585	0.07266714966334516	0.7013525369932934
Si	10.993610078281721	8.070343080509982	8.05780933784136	14	-1.205306663258494	0.16156388743906105	0.8763159969188381
Si	12.271823350796979	9.531356420253394	9.38663086037666	14	0.3640767408699925	-1.0287043808018868	-0.03468549632145766
Si	10.77766413688694	5.483904096979995	10.959713485153172	14	0.23102178344179736	-1.2479355894665491	-0.08514086712404358
Si	12.238138917375059	6.775679270742159	12.117420044302419	14	0.5887509794974082	0.4996758070124741	0.33080380981142415
Si	13.619168047718848	8.119613092380511	10.71101334905016	14	0.6104109991564637	0.7047749352849424	0.963736406019725
Si	15.165926548895765	9.47606433671005	12.251847698418864	14	-1.2648100107932128	-0.17283175650461	-0.5067576595062899
Si	13.577845864858238	5.434013925967008	13.489473187058003	14	0.18009898569200852	-0.3069426668877899	-0.1898943827407087
Si	15.021429468703099	6.505371484517724	14.996019263839763	14	0.010192118599598999	0.6705126428991812	-0.5877685601545796
Si	10.970223550620087	8.050873347432294	13.570811954584572	14	-0.652088102175	0.07528504910031994	-0.054118938773264895
Si	12.417169069816167	9.330033178638672	14.910208822496523	14	-0.34993771849343414	-0.40344550553209985	-0.17367147950217038
Si	10.852572833304869	10.66711260975512	-0.3141432456097419	14	0.9601173181710845	0.5315276881605965	0.6898537826699951
Si	12.223255097956072	12.129056188212218	1.0523937447734535	14	-0.5222745372239156	-0.8897122269684057	0.1824474332914318
Si	13.49541365884365	13.85287012456084	0.09540658807390259	14	0.20394315932052984	-0.6162746619495935	-0.5021942046735591
Si	14.977398169588596	15.16378863185203	1.308242030992162	14	-0.07589465817172704	-0.15121724540972115	1.2271291767737826
Si	13.532933286962347	10.920627139200898	2.6856644463232353	14	-0.26713347188434117	-0.05565594553364942	-0.7510044373833329
Si	14.816173112527	12.293088281392308	4.0082517374790925	14	0.16889796536478344	-0.26229773699820663	1.3062567427750638
Si	10.274551872579334	13.005961215647547	2.0676921808414708	14	-0.453506211668043	-1.7418215244085817	-0.3736139989445498
Si	12.581739722251546	15.2079994507183	4.450963765306796	14	0.2364275323774087	0.8573947186468044	-0.06634891544961327
Si	10.941647270134728	10.722159893636968	5.511974458164926	14	-0.6488312830659685	-0.2734069688655025	-0.13704762687985306
Si	12.057476767190641	12.19386281859906	6.810163383058299	14	1.0013984709703179	0.643109802397043	0.8258084326782531
Si	13.582007459103679	13.53472848447999	5.665153766352003	14	0.2896303863251048	-0.7498469257682023	-1.0282325829756396
Si	15.066391006531289	14.75841671239126	6.88445192033377	14	-0.3875360200320876	1.599852544835433	0.4117530039320303
Si	13.588519130099487	10.92470713355917	8.146802174784055	14	0.5182134763707418	-0.33521994030931046	-1.091373273206772
Si	15.002269815196641	12.154760152669352	9.464526112664847	14	0.7358611412687248	0.5064586399575568	1.016833587538763
Si	10.900716766732515	13.743542595736503	8.186492359901354	14	-0.4108160931533683	-0.5465794529258075	-0.7811743014310145
Si	12.317666167406555	14.870665517176121	9.570916045551227	14	-0.006866393867987461	1.514547384081432	-0.12868382127341135
Si	11.009717896008189	10.819671758799739	10.744224503126519	14	-1.54531528722658	0.38868684677338583	0.14642881886147738
Si	12.365255221601476	12.10021878808793	12.045628463574213	14	0.06738995599374123	0.6464380982339746	0.19678494499870552
Si	13.726439259386614	13.558343491825685	10.837656373931017	14	0.17561780622952247	-0.25002225175769166	0.0562164464934417
Si	15.031009295456329	14.938491343388085	12.223059258226876	14	0.5662473801828123	0.03217146953941687	-0.28264495028079456
Si	13.56227660638706	10.814335126179117	13.500929811216038	14	1.168237495194727	-0.2379277723317151	0.5818470474917466
Si	14.702602389570059	12.41361131473575	14.934705108623605	14	0.4824794832997277	-1.2930194070342815	0.2933978269507178
Si	11.156450813109192	13.610469499747007	13.31999022141526	14	-0.7829897588975712	0.7597935038097271	1.0991824913956578
Si	12.352313479497028	15.16762382654881	14.894264204544385	14	-1.1874634494471983	-0.7472117999255826	-0.266315089060938
H	-5.944266180401596	-1.5423814832293614	3.5521818081223966	1	-0.4946330981480676	1.6381756409638362	0.20751750993659965
H	11.200677951952892	13.684718869076637	3.2780861551357385	1	-0.06506979055283961	-2.900033765738987	1.368816363203843
H	9.579031970328707	6.892856708711816	1.4795691540848461	1	-0.05607092193232132	-0.024348110271270294	0.04881731960311956
