219
config_type=vacancy dft_energy=-23077.61017048517 dft_virial="-98.13813060111752 -99.57492516514755 -9.317749029061826 -99.57492516514756 -54.83960606991507 -19.02097952652195 -9.317749029061828 -19.02097952652195 -123.16716978156444" pbc="T T T" Lattice="16.170105267587086 0.10769159241661591 0.24609445289137172 -0.6711843322532502 16.40520253128439 -0.0534172292764803 -0.30347390474512653 -0.05000486615890921 15.977735318376148" Properties=species:S:1:pos:R:3:Z:I:1:dft_force:R:3
Si	11.04535364827061	15.149435114447472	14.792115413494036	14	2.0681696087001895	-0.3390110351038688	0.2964996084089445
Si	1.268550032041319	0.9220188971340063	1.1065210043700722	14	0.36092533707908697	0.7798486395279463	1.4195283303173796
Si	2.483692538208388	2.634701735413697	0.02136527447688711	14	-0.00856640870566937	0.5731798514575275	-0.26229285189809837
Si	3.7211868314123997	4.1781912007089455	1.4329725655959809	14	-0.4942291775022724	0.023429968561445413	-0.46922003605319207
Si	2.701939843933192	-0.0869424839813376	2.7681251333107264	14	-0.03805698672776783	-0.48460115940991383	-1.9387699917056485
Si	3.796917034116903	1.4908760011701587	3.899457737183062	14	1.3551766494804576	0.08802667573537776	1.5451129412378846
Si	0.02095126264840455	2.473337390795209	2.5477818927042293	14	-0.8665134007752415	0.7216532132695866	0.38548067843916123
Si	1.0406074102549796	4.251747841313915	4.067774569499388	14	-0.4265132053539364	-2.061618689454984	0.13893096152686152
Si	0.03936832008105843	-0.03395382163668495	5.3690865219368	14	-0.42216598047863	-0.08544014378330879	-0.09003470899041341
Si	1.2505146417630475	1.4772103763628244	6.655857926132466	14	0.313211535879375	-0.37200937211424534	-0.21561880568985423
Si	2.5968519977816427	2.8943841858945625	5.335072862653029	14	-1.1958303403800241	-0.34256507398790953	-0.4458620584407108
Si	3.8312153265327553	4.123821420780215	6.791440331025684	14	-0.1934468789615573	0.3427931310298067	0.40557720895303456
Si	2.5745535794569645	-0.022927522235926773	7.932956655538469	14	0.057467289231693745	0.8200866948987956	-0.10524074007483318
Si	3.58853161952525	1.4524780213121065	9.441433011120251	14	1.1136241328683976	-0.7550750113261915	0.17372752959814958
Si	-0.20358708218888888	2.7288182681104582	7.9544852706195615	14	-0.7387947724390138	0.19099327315453996	0.3444764336829076
Si	1.010264871481582	4.122331948537901	9.43640017983026	14	-1.0708375979042173	-0.7167367456763994	-0.05997103159245394
Si	-0.06300257344607457	-0.27170173137650006	10.526462596784445	14	-0.6403908585209864	1.3178987076646944	-0.2662472118804861
Si	1.1295132159541992	1.0917055263984754	12.02446412965888	14	-0.07229845316043593	0.12999328521296277	0.019278147690470298
Si	2.2360617132972562	2.7433426440151534	10.817868703622787	14	0.14877675223983658	-0.33245085987951106	-0.2153059021723922
Si	3.6145723166433203	4.093647074312138	12.056407729800235	14	-0.42123369768954433	-0.7577584739488299	1.5900584333393932
Si	2.5483220487617024	-0.13239322002693865	13.432279007739723	14	0.19942547016249762	0.44357094648992684	-0.3618913013478666
Si	3.791607655863355	1.2295003070001478	14.886996897733269	14	-0.8951912524056412	0.8406413963807194	-0.8932809211527712
Si	-0.27754803122011124	2.2529909157213015	13.45196882809822	14	-0.36334731829066647	0.8845455908275681	0.5382912378157781
Si	0.810368316607526	4.143855711917878	14.616779786897968	14	0.8380420089020497	-0.9439702625394907	0.04545637072862199
Si	-0.22595180709547216	5.545691676991302	0.06322575169736595	14	-0.21933816664598044	-1.066244832470837	-0.44363445279133445
Si	1.1295083642530843	6.911809418455874	1.2684319739808532	14	-0.21793537158330767	0.3249249774969056	1.0056639346964438
Si	2.510367190938823	8.221066840086	-0.03827668733017668	14	-0.5686392794621459	1.0659820655071177	0.0975266527827929
Si	3.642644259294884	9.689380813837564	1.3856684797244383	14	0.05002393932986505	0.16016597747649652	-0.2220455405480964
Si	2.323471577819342	5.526160345535896	2.790716270936011	14	0.6823178729766411	0.820925132343696	-1.0179949558118737
Si	3.567310278848108	6.916491310031878	4.2029817761730435	14	0.9802698987809372	-0.5486571631350191	-0.8432572389334382
Si	-0.3621358229269543	8.350828820874886	2.5770554399986154	14	-0.8399718805553529	-1.2832782603078363	-0.9840663928966679
Si	0.8483458157022757	9.627862860932689	3.9272757741429394	14	0.11050147867038816	0.6101477179716805	1.567640451831958
Si	-0.4175940011391572	5.489271244724618	5.3918992205796705	14	0.5231705674279873	0.8116956355759604	0.2724690296447125
Si	1.0000002891558835	6.930700325364096	6.848248899381571	14	-1.6329223585737098	-0.6078422078311038	-0.15798388039128686
Si	2.159757392627475	8.281535208316324	5.382904166712405	14	-0.7400589849249306	-0.31456136617245267	-0.42495614397205467
Si	3.495469523204154	9.435835765267212	6.742069420479139	14	-0.5053684913018139	0.6453029552351291	1.3389617166684114
Si	2.276676920564878	5.421007810036146	8.136061802083264	14	1.1486857818981928	0.716017607518354	-1.025724212625303
Si	3.5989951215966642	6.838332022302449	9.45013858015432	14	-0.776216953263237	-1.1603310892247396	0.5919882582060066
Si	-0.6359917095985276	8.262078269611349	8.1774888606708	14	0.5090521138939902	-1.3422419328358566	-0.853759689945179
Si	0.7375394311698106	9.575380392737705	9.426565781670094	14	0.4340861389639005	0.12920755542712553	0.4968856435190494
Si	-0.48491620581131345	5.3514538228510755	10.71136739521306	14	-0.5877191949324329	-0.029214441310714562	0.4302325663100626
Si	0.7687746829483737	6.843141675341149	12.004656251239915	14	-0.38803661423792035	-0.10426629115849707	1.296184437683384
Si	2.1415683651472275	8.139301121194398	10.746668372526017	14	-0.3248383312476166	0.3390395743729225	-1.079064620707627
Si	3.4948857018366457	9.54479041720744	11.885619764382655	14	0.3393205961844147	-0.18500311197965896	1.3788896967376512
Si	2.3011634560924343	5.59387553799837	13.319908758214513	14	-0.5795333098141454	-0.5472715944779913	0.1638624555952734
Si	3.685112816388447	7.024541928331006	14.607703871345452	14	-1.1108797350496715	-1.302720444517732	0.5997177721299678
Si	-0.6027252122864719	8.23090932441469	13.594118819067484	14	1.0175043889167896	-0.38167132879682975	-1.7847525554917543
Si	0.7783729649876081	9.66311046953338	14.68680277185749	14	-0.006848653241278438	-0.4562284979810157	0.8128806580180167
Si	-0.3582787205405054	11.122139904584483	-0.04920595270863426	14	0.1388489432671488	0.13071345181313626	-1.1025832924026175
Si	0.7500568200465879	12.5246195286725	1.3371660236774834	14	0.3104193155016941	-0.16241749440535022	1.0542547399208582
Si	2.2185017897282577	13.62195302836441	-0.042960196139885644	14	1.2658376815896761	-0.6605143856407214	1.3417223124506545
Si	3.56512863058005	14.88090316113279	1.4746874917830086	14	-1.2533590790288693	-0.5923297009925224	1.045878078787816
Si	2.173152939406073	11.072576543227042	2.7215455681390286	14	-0.1669755499169087	-0.010114214108398512	-1.2484631802782433
Si	3.5085933747203106	12.311285378943516	4.096816852373958	14	-0.04414716389960259	-1.0309008760768892	0.4378258116520559
Si	-0.7705617261924097	13.962678294270738	2.546130697091414	14	0.2395149156458425	-0.5735657743660817	-1.1826032890605223
Si	0.6966201839656476	14.967121124414284	3.9110177237064736	14	-0.12471197777484659	0.3196922639493402	1.4458258526423862
Si	-0.6254198528688772	10.945683535030842	5.346670045551656	14	-0.052641324545775796	-0.2812174726070483	-0.6666639553454515
Si	0.7411474795656878	12.251751771794687	6.677553116285175	14	0.09630434931359451	-0.4652708182814446	0.034493177643510585
Si	2.0142856036281205	13.555576905409685	5.272443870192812	14	0.11700946045674698	1.0570965826312178	0.7358557419475525
Si	3.3510004191019056	14.99539683851268	6.712795873184753	14	-0.707441685723	-0.18476991272712157	-0.6988020005157064
Si	2.132136658179609	10.900548159557719	8.087292502474982	14	-1.0406983300098454	-0.928366481462044	-1.3955815695865845
Si	3.3427104791300244	12.176482480696114	9.399511079018982	14	1.4396729405007398	1.2050675504637203	0.37779950129521883
Si	-0.7590971564575939	13.539820197421774	7.868412858371519	14	-0.5736189962462088	0.147412266646434	-0.2230999508398891
Si	0.5974756716800095	14.950633426791706	9.033835131511761	14	-0.06074287740956239	-0.37679085667812473	0.8153486620148269
Si	-0.668566030884839	10.894684070143352	10.80310174266234	14	0.3376648043582393	-0.07665904778340707	-0.48923634808107686
Si	0.7605138531831827	12.288776720237188	11.927766491968919	14	-0.9826898231082606	0.8038468223651445	0.9930958576704959
Si	1.9618920832869113	13.712914338102697	10.489347083254465	14	-0.6787625485399403	-1.0005754601573387	-0.10749714210379514
Si	3.1607636011478744	14.893404377672518	11.95303900307711	14	1.081892322338726	1.0218858094928542	0.8842216315572294
Si	2.067232217896443	10.844861951393108	13.24739685058298	14	-0.34125098205878185	-0.23784858228785452	-1.4582975132188285
Si	3.2300814722120132	12.150878436678395	14.571883762013185	14	1.5248834845789594	1.4621019777610518	0.824989021412722
Si	-0.8767864876385816	13.731113068985175	13.457415671216694	14	0.9691755793244984	-0.11836417584993301	-1.4208336804884187
Si	0.6395690305540098	14.99137154382091	14.84753477809732	14	-4.576722764624918	4.21002169655465	2.7136155173911187
Si	5.304089899332448	-0.11390662154496933	0.21325813974484867	14	1.7225325780757665	0.7403073536988568	-0.37990832187880424
Si	6.513685293891332	1.5033836866447063	1.489132623236158	14	1.1395922966018932	-0.9382585520707816	-1.5739370887610007
Si	7.9536620986637105	2.9110093483820654	0.17470490545111528	14	-0.46544102545363836	-0.13650820898368599	0.023983013315809265
Si	9.376657949533486	4.299535480063256	1.374792583058246	14	-0.05891764974278927	-0.6160450622445042	-0.1043760773556674
Si	7.858838834837861	0.060372951441728315	2.691188474262286	14	1.2598228378037215	-0.20402029248013426	0.1328518401079034
Si	9.26771461822919	1.454201992441647	3.973659654036331	14	-0.18470974886263009	-1.6283715021570477	0.7567742548322772
Si	5.180209797528682	2.850828847751233	2.6072605139070872	14	-0.5023757247091616	0.4432729553833216	1.2182892024620497
Si	6.549312952412702	4.058962263040788	4.065321225968888	14	0.11146281494959154	0.3701208952565965	-0.25402263452531004
Si	5.27285303032018	0.031157624560722665	5.477153312572978	14	-0.5499080058732712	0.40885819645207555	-1.1745693562666557
Si	6.623794650696937	1.339383251087052	6.781212945075201	14	-0.5429020009863996	-0.18854660933188705	0.6164847212542495
Si	7.87496265487681	2.6154065200792225	5.389059358193673	14	-0.3810336946774331	0.4435647758371584	-0.7042208620884506
Si	9.183383966681445	3.9661524551776743	6.608021770371976	14	-0.2740798271277852	1.820326882922387	1.1468284154149178
Si	7.950267525116895	0.031920958869487384	8.207802289237508	14	-0.6618534172914544	-0.6967916532658827	-0.8023974902961768
Si	9.149205349559764	1.391788092064196	9.511232817828482	14	0.2648613861129263	1.3337917380906577	-0.028242820610230604
Si	5.0801806584064035	2.609081519058928	8.052602839502518	14	0.013659254123818684	-0.001520294575803559	-0.15068065572940623
Si	6.372704562890791	4.02122088006697	9.28941304284931	14	-0.0055098787010773335	0.5001671452391544	1.1035163465232993
Si	5.078285260504131	0.11462467330999378	10.844315326400816	14	0.06729893886540798	0.1945581106809253	-0.09504167949086978
Si	6.498053112898706	1.4389547130708127	12.272955322901074	14	-0.8147927890446108	0.02498625861173105	-0.10647487062850426
Si	7.726977684699869	2.7821206737938833	10.805265601359643	14	-0.4448531567130847	-0.6549813669917627	-0.6955150994744291
Si	8.975153806525473	4.092220674184319	12.130530402201959	14	0.7819998833493141	0.6618778427919958	0.45654345838273397
Si	7.98248767222181	0.1625141977827499	13.585471470446796	14	-0.9709709821695577	-0.9010675136148397	0.19524228180661668
Si	9.217764738016252	1.631445954809628	14.951275468572595	14	-0.4924620568157347	-1.0955862863843666	-0.05264903786173624
Si	4.951063953865815	2.7984886961222895	13.61038333843877	14	0.5403671482512656	-0.3492769444261561	-1.000913046285874
Si	6.222068946671339	4.26301834300413	14.872027782559696	14	-0.09208927925174375	0.015254367864438552	0.3666439895321603
Si	5.037951451901182	5.721491449660709	0.21493682833064906	14	-0.25614096819858007	-1.6819520514762736	-1.3698365777948778
Si	6.382031149667583	6.842543298870296	1.533465850791597	14	1.2505092658920172	1.5992015409683717	0.18620278972204007
Si	7.777365835246866	8.234339477103017	-0.09539414732371987	14	-1.160253698954603	-0.45876875003732215	0.8140538533756003
Si	8.941987577703127	9.540477254916178	1.3679872636275638	14	-0.10160828247852799	1.1180970847938592	0.43238663834728264
Si	7.944157616179368	5.480510689744579	2.6859534887591683	14	-1.4789442602712135	-0.228237790601141	0.16327547225068362
Si	9.111708168875401	6.892506116952874	3.964795596099171	14	0.6453006412403411	0.828704011489804	0.3232882118500993
Si	4.927963387623452	8.303429318214748	2.7813266120447233	14	-0.3919871175623279	-1.1578137200057828	-0.5500165065177814
Si	6.201402317155016	9.52186774667263	4.129113009463007	14	1.1210613121174577	0.47415835804160045	0.589684547839154
Si	5.076452934716355	5.40879446109591	5.3340459192503475	14	0.05065771679128156	0.6837857170039137	-0.08855478076813618
Si	6.360538113728	6.86258405894278	6.616583405606298	14	-0.2670859064359184	-0.456890814711486	0.8638093693100418
Si	7.73118734403401	8.163255586833007	5.310570154788422	14	-0.19524999512257712	0.5929683635540473	0.30036732214204326
Si	9.14852611140366	9.504700810893947	6.634942242625572	14	-0.980351402819586	0.5996059290485414	0.0072471745659013894
Si	7.665357846071578	5.4628391770499345	8.015307813031283	14	0.9004188237425663	-0.4544230678252078	-0.648286465848629
Si	9.109914656696546	6.768195830983576	9.374453659993556	14	-0.32464498412754145	-0.7364522383818269	-0.6367715135618138
Si	4.811587250210932	8.055500922301896	8.040499462454223	14	1.4170150748669348	0.5245664205062956	-1.0009564979657846
Si	6.240500559207338	9.46425864763276	9.227118817766032	14	0.685321438211638	0.07213210264622233	-0.04679848770573929
Si	4.878070110590189	5.301363243305801	10.700565891297297	14	1.2800643786576513	0.8776907669335213	-0.9715361111189263
Si	6.228694753160765	6.780543410321327	11.928191824433338	14	-0.3612354123806968	-0.550599118983327	1.3040260517993034
Si	7.575341000817017	7.946387781458576	10.559551198388949	14	-0.004009124525706899	1.7358802142347833	0.02180785821496399
Si	8.797329257257394	9.35481882558103	12.048502691450148	14	-0.6629178548939958	0.5269184676531671	-0.6203616909665008
Si	7.590562404448571	5.473805638803608	13.42706181180736	14	-0.1319630089987282	0.2081106639339578	-0.3465528583394592
Si	8.973769454473985	6.864670290422243	14.69430188454762	14	-1.028218441896379	-1.007369348855298	0.8362118961351683
Si	4.974641604051155	8.309395293352532	13.349787150914572	14	-1.1519189468382791	-1.3901758206509731	-3.302553930466366
Si	6.114637728881229	9.630571727388581	14.531404402376785	14	1.4662800239062923	0.9412289500471488	2.517094110687728
Si	5.046251095275294	10.980499342232298	-0.09202544951618404	14	-0.8573844342255238	-0.4394697763937586	0.5845716477995075
Si	6.304971580857562	12.135002053396311	1.432356399554372	14	0.14364636868401312	1.5901515073519823	0.15171398295757374
Si	7.69641843661	13.615978967058103	0.09150631749687584	14	-0.7792282318141945	-0.11128078069292506	-0.09445983835692026
Si	8.867809919355434	15.113537377897364	1.4429961800996327	14	-1.2900965745063373	0.10466815492003621	0.32163062025019984
Si	7.5941154668984785	10.895452256153233	2.8760350522775187	14	0.41492806189188114	-0.13288629291919338	-0.35321356378183477
Si	8.797874265015983	12.477601693166745	4.190508052606302	14	0.07728151238141491	-1.2079919256548566	0.17649995246486525
Si	4.932103505908278	13.580585807423962	2.9186718016764024	14	0.6572809635901031	0.10262669729583863	-1.639022305945761
Si	6.086625623876751	15.138049789164201	4.17965479721198	14	-0.009400475271525406	-0.12576278851919112	-0.10450051885316256
Si	4.704874084185847	10.732220006605457	5.3995697600425325	14	1.1669398583396482	2.0792898963203617	0.07347730494972382
Si	6.017878636310481	12.3936915223823	6.718279912678442	14	0.21487267092594728	-1.467056754823509	0.10762492603820649
Si	7.426042836871608	13.787832689487287	5.555618257472653	14	-0.5009047953555048	-0.4174107211890162	-0.8506738493399373
Si	8.720462139258268	15.136537675650017	6.789523909085248	14	0.10335560565410061	-0.1206246916474072	1.1825891479812614
Si	7.636163543228738	10.921918285735721	7.890069234915308	14	-0.7424665679467173	-0.006599256025224075	-0.007542080346122376
Si	8.788185417889267	12.422947280105932	9.288449171561124	14	-0.9745515034383957	-0.4975261058542983	0.8641168735063316
Si	4.6682275684303205	13.712142917625409	8.111531601245671	14	-0.8188008851281896	-1.488965400367023	-0.6172483395343336
Si	5.75159302061206	15.136704250721634	9.40010136932131	14	1.1026992492525562	0.9980917724180757	0.8684178184858753
Si	4.879260394597075	10.803370203457373	10.578057203675378	14	-0.5343651599919119	0.18132951669823139	-0.5957456715208711
Si	6.1109116224248865	12.203802409674848	11.84459377975396	14	-0.00850007418840955	0.5581499410875378	1.2716913170720572
Si	7.245690551322598	13.775887801342082	10.602102234401467	14	0.3022509138995837	-0.3961710772498049	-0.29547116628088527
Si	8.4654923077938	15.072386866273385	12.081516900304221	14	0.33072359132543555	0.6373322716321382	0.08576898815375573
Si	7.4713965388949095	10.866794874900455	13.251384948899535	14	0.9376787678210883	1.201852897481939	-0.02731593714231722
Si	8.881284710585577	12.37974288167659	14.623297238729158	14	-2.009777235774306	-1.708456033558488	0.8486604167637294
Si	4.66076726934911	13.582230534101956	13.24323570825999	14	-0.05461387654739341	-0.249073256784025	0.2840647146385803
Si	5.840688042654766	14.95254176256362	14.84612778477396	14	0.8191760093943993	0.32392610308002806	-0.8615455110756514
Si	10.802069947558543	0.10944305651914174	0.21760202947650553	14	-0.5000632725842205	0.8971758886022635	-0.03732396460099362
Si	12.139554566275915	1.4157263853657542	1.526513363093759	14	-0.18271739935004735	0.7368980680443405	0.548100004612143
Si	13.559665272215952	2.60934997985396	0.049519696047406206	14	-0.04726540043187818	-0.10733439113702978	1.0648404947449719
Si	14.685183920918774	4.077628374464014	1.5300518704403212	14	0.3334445920857482	0.0049820307788509335	0.6659309332186774
Si	13.40177636282953	0.10615036869574138	3.0271655420107035	14	-0.2744611220467632	0.8009191047370917	-0.42289283195263594
Si	14.743223204124174	1.4178433442856122	4.352440046255248	14	0.5569973145725153	0.6628736318824893	-0.33502685029976736
Si	10.565049792985985	2.806020153486521	2.74522025234667	14	1.3803223166220377	0.5294538346093651	-0.7237424934527389
Si	11.940332397856848	4.141135524826051	4.127526503198392	14	-1.2212955959128988	-0.5320483369879265	0.7343783848305955
Si	10.624727333934558	-0.0842077417861657	5.358985280215307	14	0.03495803348539336	1.7095050445291085	-0.21536015249464735
Si	11.888296286164447	1.3526898500118743	6.78357572351822	14	0.2802003433423977	0.163595060641978	-0.5648679821785527
Si	13.290407180967721	2.893835943668564	5.544695461029016	14	-1.034666002707714	-1.956057332546728	-0.7409213336493083
Si	14.42142442426758	4.181732942522918	6.892333072946439	14	1.712593970460734	0.4898950652640988	1.262413997745367
Si	13.267924398000673	0.07146232295698188	8.166250703654685	14	0.09871193233538117	-0.25077687116915515	-0.3853025008404749
Si	14.621869221367636	1.3363412344879284	9.48575006633864	14	0.7884561859187379	0.4059893571358543	0.7955467801706423
Si	10.51574033732023	2.729347103531997	8.054428696355474	14	-0.2292515774288754	-0.41593259274046307	0.4306277451977694
Si	11.864995182942662	3.9910271267944335	9.466928700479734	14	-0.635956987396391	0.26181334075589074	0.6473001898478202
Si	10.499272046502112	0.09288581784724936	10.79569319505969	14	-0.026149683769098053	-0.6281925064400758	0.7815568819026526
Si	11.72076381219505	1.429613571190675	12.226571443007682	14	1.287328522518666	-0.6687712332658449	0.13885074304087291
Si	13.214246794097685	2.669682500453063	10.90560039765217	14	-0.4350071088895776	-0.43407148366357573	-0.7687360652237342
Si	14.494615570055219	3.8227038255432877	12.370430850003142	14	0.4141641865012652	1.4204297598426234	0.23301567561757222
Si	13.239089121040342	-0.14684967211602304	13.452793617287774	14	-0.039643358710299205	0.6406939918382317	-0.2257579595198582
Si	14.631499848080969	0.7870542755161017	15.146040540900655	14	-2.0570243813584117	3.2667284060459543	-3.5995682741604043
Si	10.4797067531389	2.872857188047174	13.513189210001373	14	-0.2559388793204164	0.30594559224463647	-0.39400826345449635
Si	11.927305580362992	4.077651015735884	14.832339250205045	14	-0.6143494182858665	0.6434517594046226	0.12801173434272464
Si	10.736856615637722	5.665936237426204	0.06406833045767617	14	-0.30512618097910527	-1.5187436850744458	-0.738433017920469
Si	11.854358636864811	6.726844782380175	1.647949824769255	14	0.3746131304719593	2.056481363914796	0.25932065414800715
Si	13.108833883971428	8.266545069104586	0.35882858000020884	14	-0.08246203249098129	0.42185539095595614	-1.02528866738407
Si	14.48559140598126	9.91296822525631	1.3937789067550634	14	-0.9328600022300667	-1.5333930718570534	1.1273276100037228
Si	13.249437799518702	5.523485440987809	3.0033889720796463	14	0.6253954009622867	-1.0101397148377576	-1.9317732427979297
Si	14.436328850092952	6.9512197866132635	4.210133183616598	14	1.793327191734448	0.8564642356314428	-0.006704928453882161
Si	10.445254823521074	8.401752275778243	2.6544400727833435	14	0.09539160692494193	-1.5092550208904392	0.45796862206169203
Si	11.766318051197771	9.728314098051975	3.9934626807541784	14	0.26795673980785256	-0.03383343201836059	0.39810583400321636
Si	10.410595887989004	5.531403417207539	5.328615248468924	14	0.5067741145803389	-0.4483791705491357	0.3621525256483936
Si	11.773346548879745	6.872628697484597	6.703377104086775	14	0.10451800236933957	-0.5646705212899653	0.369693320441856
Si	13.093170975538406	8.31574778734581	5.426582414617315	14	-0.9996912570377399	0.1049476340683363	-0.15110385966510262
Si	14.194848364961972	9.585601309753367	6.952854809889027	14	0.5004417392873461	0.806896410385372	-0.04203757198442109
Si	13.066612763634732	5.480538182717564	8.215204367905338	14	-0.5269994574707518	0.38883211422397423	-0.9134856952006228
Si	14.184043626578802	6.83356765180749	9.641321479825782	14	0.8871341796638932	0.5937108987705059	0.4582419305572238
Si	10.393225180763492	8.152947339197274	8.049150045542323	14	-0.22971900437607834	0.11860663108162298	0.056155511297354195
Si	11.29703240914538	9.574110864279271	9.625980400900058	14	1.1473279811786226	0.07546116981475008	-0.36039877470952064
Si	10.380908328866134	5.397774630629972	10.752433810684376	14	0.49917958368568544	-0.4114809809891586	0.32657871243882486
Si	11.701861584650892	6.691864017340809	12.232741189592296	14	-0.7893491307964254	0.8405205544306726	-0.9096904866375523
Si	12.813664474301527	8.297888675541385	10.904097987540215	14	0.4835740028345148	-0.3178598371876707	0.6004060570241715
Si	14.290126071458934	9.548307900515837	12.367503656997073	14	-1.437921503556655	0.45129583242431176	-0.35336808721157575
Si	13.154250658109225	5.558275372449985	13.54173985382962	14	0.586856589097523	-1.601395722248586	-0.22654111820037529
Si	14.273463712596214	6.925460488159864	14.962859713601581	14	-0.5329507949552985	-0.04329201427012134	1.0663564184417311
Si	10.186212797587391	8.117225881121014	13.379980904187109	14	1.130320633706907	0.33405960047832767	-0.9269744850417158
Si	11.345313304174748	9.510482421389359	14.74909052800595	14	0.9469656002374631	0.1632721298137674	1.4947357320370311
Si	10.31538772254136	10.98654941352274	0.14037912006227804	14	-0.47848012897423736	-0.5422363418190134	-1.2011712974615676
Si	11.469956740287278	12.395729236850615	1.4425077755207196	14	0.015467512495478829	0.6658990515127076	0.5698273872305865
Si	12.786067998359236	13.836650506106718	0.2504157013511584	14	0.43643175834747167	0.9021190956907802	-0.9068100773473904
Si	14.107213704954892	15.607186645715732	1.3664201641674092	14	0.5291113633807213	-1.261096563379323	0.10802164758910536
Si	12.966457480283463	11.21868552230617	2.659836781656962	14	0.8994124931202603	-0.6626121504714302	0.6949155177137706
Si	14.254297875958141	12.538856036977704	4.102619486907534	14	-0.17439755964458017	-0.4297916217476572	0.6824934794700072
Si	10.12212991202637	13.735249952802592	2.8289719342280226	14	-0.010103158355521875	-0.16992357927699048	-0.788995089593841
Si	11.435506427903157	15.0336880809462	4.117430113178015	14	0.003502873888169743	-0.02315794561857375	0.5951255209176514
Si	10.36938877318535	11.026103715479875	5.336439425133763	14	-0.5559272205382698	0.19625221197637086	0.12858637638177775
Si	11.608518089665125	12.268766687605098	6.8578455641871	14	-0.25397764018220753	0.8720839575618744	0.11235935937472717
Si	12.82122180740504	13.807972100815777	5.503727696813702	14	-0.36948737490571204	-1.3856316491081433	-0.592619464562103
Si	14.026901879164095	15.13789453472852	6.793707692680109	14	1.168485863968653	0.45507535724492937	1.0776122033122755
Si	12.770778670912073	10.85726775114424	8.327627986142813	14	0.23980853587340342	0.15710096282434802	-0.40865867867923206
Si	14.206539347415491	12.227147178206666	9.541543011927779	14	-0.6582986070758177	0.44932842263333445	0.22804984280223817
Si	10.161283140024661	13.774050623853192	8.111830789481099	14	0.2519932610961172	-0.25399975168796074	-1.0779798713730566
Si	11.277890831012881	15.185298889089772	9.50362696771382	14	0.9582553236982333	-0.6569973706732908	0.46740277881291137
Si	9.929813331527697	10.992736949678108	10.812051513985868	14	-0.43398972251439494	-0.1747035211776778	-0.4218209381446662
Si	11.285587246215025	12.316876155861737	12.051894030529553	14	0.6791273883848693	0.17615285324664526	1.6057478322240006
Si	12.696866238892	13.623164336409465	10.813101098660416	14	-0.5450648147817082	-0.3950050809871178	-1.6670856634046454
Si	14.040569121205134	14.938850262017004	11.961155899042557	14	0.1755180473431007	0.7192687701956811	2.2638811172277333
Si	12.712246131426646	10.967040723339204	13.561455549927398	14	0.01974634596926926	0.0953633247664203	-0.853187361900914
Si	13.958948953346985	12.440088340145333	14.882688587143122	14	-0.4083925692785968	-0.2311943046087793	0.5844389787649878
Si	9.961570949792977	13.84392967501297	13.397152691666905	14	0.1200585342559106	-0.6424408007927404	-1.9569299656923864
H	13.338613683246658	14.701852748716313	2.2399366052544605	1	-1.2985236293036544	-1.4182047252985674	1.3846600284076596
H	15.3520987561908	-0.06235082826295555	16.034126640436142	1	-0.316563742995784	-0.8284029350568146	-0.42864388033274303
H	1.3048359046806284	14.245906050262844	14.049931287123437	1	3.559386525996066	-4.140898558464596	-4.425267949083615
H	0.3760197742844651	-0.09304915845145537	0.17165156821605643	1	2.7087882671525407	0.8284705551267345	1.2666023283118881
