220
config_type=vacancy dft_energy=-23092.962035875564 dft_virial="-62.848476144615894 24.867409435148648 68.73738678355735 24.867409435148648 4.697489344823208 30.32708748664685 68.73738678355737 30.32708748664685 6.0694290168381855" pbc="T T T" Lattice="16.02412370573043 -0.075161783785011 0.23064571262982478 0.2040586338879627 16.493123620968884 0.015961862825132397 0.1824716567539734 0.20881834599545698 16.53331674543217" Properties=species:S:1:pos:R:3:Z:I:1:dft_force:R:3
Si	12.431289477216746	15.330559932221728	15.218602528912115	14	0.15422209619737817	-0.35935876260752075	0.7261513620271857
Si	1.256639318421947	0.8840452084152872	1.2361292862496536	14	0.8640327983623628	1.8077189537639768	1.3706629310447733
Si	2.742001233470691	2.535848005736097	0.2142046734006046	14	-0.7780000148027598	0.008716047035301988	-0.465537699013676
Si	3.945254851648581	4.1954298072891545	1.4396478450600991	14	0.5094182392915793	-1.078679469130669	0.42723311484357784
Si	2.8107814773189874	0.053526728750945995	2.773400910010131	14	-0.7263256829678916	0.01697675131840575	1.0094033502740671
Si	4.020636191177271	1.5300631439424606	4.25534769155683	14	0.15920798363420935	-0.9914693764449701	-0.8975181027203752
Si	0.16116673663376155	2.5771148699677395	2.7972187017076324	14	0.2798630143243943	0.40328609700225065	-0.5266284469730543
Si	1.315076403367291	4.256272389834953	4.258501601801797	14	0.441491950728055	-0.7669216361993058	-1.2865916437339113
Si	0.12194959354201304	0.01582403951158206	5.665057428239791	14	0.513740010224216	1.4700289525736001	0.5948252158162581
Si	1.6055101899345874	1.6188405890289097	7.060077763852956	14	-1.9461035554103072	-1.615929409291787	0.7835137501618173
Si	2.6564482128826516	2.8337563031684954	5.56073159026886	14	0.5937936883618147	1.0143905232635584	-0.9068159908896268
Si	4.11016525410157	4.105447209507474	6.815824402905039	14	0.22226177050552084	0.7859285322785003	0.9773871754959872
Si	2.876984745723226	0.07287968612808443	8.355964674703367	14	-0.9531565647378476	0.38574987316618076	1.0006561928643911
Si	4.090345941093697	1.5104633866782669	9.854015950178756	14	-0.24540428949217372	0.3419084136891437	-1.2208973316988079
Si	0.12636955515563905	3.0075611171354892	8.366849511280504	14	0.1649508044772921	-0.311893073071203	-0.4517102946019196
Si	1.5118961081005227	4.401850668667504	9.725827447803587	14	-0.6935646589785648	-0.2599009526187646	-0.07326570298187562
Si	0.013766305388342098	-0.05261805643951526	11.010440091086245	14	0.2303772073380362	1.021817418091338	-0.4685870299233716
Si	1.4277918349014316	1.391653280011197	12.265015264998276	14	0.54891504499863	-0.009454982704312546	1.1913057092376276
Si	2.716258723173492	2.9694577787288274	11.074446199457025	14	0.7129592777400379	-0.19107966229329695	0.6984749559189837
Si	4.252046342418299	4.2046864056503965	12.609924517544679	14	-1.7971907916990346	0.6731056026145505	-0.8570702451554018
Si	2.952443009892037	0.11874760539697142	13.838721924032788	14	-0.4830104165483383	1.0091125582623581	-0.4686757330569167
Si	4.295279592763038	1.4495727262323927	15.353166160837322	14	-1.5358646754013119	0.6489223001943017	-0.9727501870511003
Si	0.2778678260841773	2.7455766266396537	13.878081698228094	14	0.49475188321385855	0.0879107188854391	-0.11747585896182183
Si	1.6851928989233833	4.139686687344719	15.2923716561916	14	-0.7146256110980259	-0.45218492064401894	0.21549359286076303
Si	0.23921479701998372	5.545530960861593	0.012432944959576019	14	1.5321100903022995	-1.601223201081604	0.9917830512940283
Si	1.4312854956402656	7.015312431092472	1.3931997857969651	14	1.0954430758180345	-0.8139193845673566	-1.418808935048802
Si	2.8642873723132336	8.372049937472026	0.09702280494943177	14	0.19521374253756305	-0.18704791204077276	-0.6400985238460856
Si	4.114742270188777	9.770025461343177	1.57238451678243	14	0.287323333521336	-0.1372617999530214	-0.7253674320150725
Si	2.6423165154537345	5.614583646143652	2.729706111824665	14	0.19210759020029214	-0.443191708455205	1.310873419487922
Si	3.9862941471531985	6.997533223644479	4.149984973540934	14	0.8203630887207116	-1.1577059906928684	-0.03852364234337471
Si	0.20514359183300432	8.287892778582853	2.6614034417837873	14	-1.7216054374973213	1.8592428759376163	0.80956830303407
Si	1.4384859624749362	9.58382295954333	4.184955235459329	14	-0.5883406310883126	0.6345071411063594	0.13713633001339817
Si	0.01146177137804688	5.592208191448421	5.595878137820866	14	0.16086917478155702	0.4914068751923458	0.28683096685252757
Si	1.4192467894613106	6.877211868318362	7.024732494313971	14	0.09217284017464857	0.7129461651029051	0.13487684265805203
Si	2.7348440367460882	8.294824009177098	5.555657769214204	14	-0.6763583079550698	-0.8034328744086006	0.5963108004702397
Si	4.114388096324885	9.519313635818426	6.880147825416318	14	0.23145295780398623	1.0098787476477624	1.2558777338004865
Si	2.9271892915789413	5.5698070952064835	8.316822853655069	14	-0.7326930252932384	-0.4756637402065471	-1.0776890793613478
Si	4.074627672962282	6.913308755695198	9.718040430587992	14	0.892514731767367	-0.07451757416225573	1.3756953554878992
Si	0.06369680721362574	8.317665819503064	8.525360745233419	14	-0.07086943282349763	-0.17781867238356922	-1.3998740299185715
Si	1.3538095622649442	9.697031990851581	9.899896690220997	14	0.8353382345473821	-0.18362088575954735	-0.32018154529176435
Si	0.1247429195364112	5.658542872779534	11.182842632967697	14	0.5110161812480513	-0.4527917014995739	0.18696023734935568
Si	1.5113255836862909	6.947881573639634	12.578484776088509	14	0.22604926575263098	-0.1577622511126901	0.4616069932002336
Si	2.7817760802033176	8.285115478555145	11.179031658088364	14	0.6919674883536888	0.5629576509256827	-0.37003682011262773
Si	4.392062008212091	9.759796086803739	12.27832643293257	14	-0.7676410314678831	0.1787093032664685	0.3157510166040852
Si	2.869061507790751	5.6182055146160215	14.080446387436723	14	0.045612436821554976	-0.3754196862108897	-2.337864929925526
Si	4.2749490514176935	7.026799844017226	15.078174995774342	14	0.22965806917999085	1.3933066555993174	1.448220837248104
Si	0.35062571486540334	8.385630341646744	14.027743393373742	14	0.1639874113138326	0.8581436816265635	-0.5288429399852979
Si	1.757035705006502	10.008368445775123	15.204193582259427	14	0.2822729113409691	-0.2978075296853038	-0.2869309828494814
Si	0.23228837421574455	11.232571207612665	0.014094837705526048	14	0.0025055421344843025	-0.575289186262177	-0.31891656147425157
Si	1.6093980894540423	12.501209167296835	1.3931356819301979	14	0.2986415962511598	0.1386923629531518	0.706763942360609
Si	3.0836043290885544	13.836427005602507	0.06639077221453413	14	-0.1655586137749751	0.2520349130023036	0.8211452189591006
Si	4.438944371172576	15.133413297767982	1.7110668221474559	14	-0.28532995556662516	-0.9190053441019167	-1.2583105136544108
Si	2.7705274541822726	11.02477852348549	3.0048735625212575	14	0.6151145792291426	1.3446793406793567	-0.8090322275748191
Si	4.338945544208458	12.45385403831894	4.276684663610426	14	-1.688126303792077	-0.5436720470297841	0.06282238739249817
Si	0.21999004737638048	13.945775381534679	2.6885963020666033	14	0.3533698869852998	0.11958750776125948	0.16543468649854398
Si	1.5329317919803107	15.302476028190842	4.200433114090366	14	0.7465245434735069	-1.0215600504487912	-0.7652537601781256
Si	0.16169559353459423	11.094927384889273	5.559040850782865	14	-0.2445658520472734	-0.13974008837111213	-0.6768416757552578
Si	1.5213321972887135	12.482812960131204	6.884232844326084	14	0.011216446959145995	-1.306119445750968	0.9206847900970375
Si	2.79397825124253	13.837218688357089	5.584587844286423	14	1.2670975231965487	0.3400304783633075	-0.6011822737203242
Si	4.207989357385597	15.212740230296218	6.945432805929111	14	1.1814288081502788	-0.6555493241569833	-0.2389433589331736
Si	2.731550700590903	10.93975756499162	8.406435251606167	14	0.8636581883172171	0.6629777616479552	-0.6589246712212737
Si	4.295282797956376	12.453579994288509	9.662327759980272	14	-1.311137472004301	-1.3256212796042912	0.6919404917478272
Si	0.23629807108205791	13.776637329068368	8.315835654106849	14	0.02604426845097198	-0.062285026380587215	0.755310267462985
Si	1.650640914735647	15.109427233420215	9.773437389651884	14	0.42126172273753393	0.04336734765600168	-0.8084509006619336
Si	0.14855590344390543	11.073737851729243	11.29966872495831	14	0.034336340218981555	0.9065149144566373	0.214660040515971
Si	1.6233374752826568	12.721954037704405	12.65667707017496	14	-0.8526026925511124	-1.0617880785088922	0.259438924992734
Si	3.0235229799606214	13.764986451283356	11.226313067619476	14	0.45872426991528353	0.899700971137181	-1.0507014723684134
Si	4.466193322338813	15.187265353642774	12.529171273980863	14	-0.765484131214811	0.17217972419542044	-0.30630657543158524
Si	3.235863833434958	11.376546889776023	13.740569288431578	14	-0.6092791985945345	-1.122731502133426	0.3888722234669685
Si	4.617130684433135	12.58489516276527	15.252114427861548	14	-0.398047984133513	0.25938441755994684	0.0845911648065959
Si	0.3231924650822089	14.1427569485315	14.154564880790092	14	0.7046417520293587	0.45048362025367694	-1.2549315670426722
Si	1.7730440431350407	15.696633076381454	15.501074615226875	14	-3.292662374078692	2.6760794366012126	3.7403620014917127
Si	5.367099450310648	0.02186582895442836	0.16451776626903783	14	0.5618099095107687	-1.19753086943877	0.6262351239598472
Si	6.719827259823889	1.3913279528873512	1.4117209955027943	14	0.5711718182024919	0.14812034905160276	-0.24158748364441385
Si	8.070010145826457	2.776910596715657	0.04316113349462508	14	0.16932348329526795	0.49128063392112664	0.3581266889381058
Si	9.501148202573157	4.245244922154257	1.414772339560932	14	-0.42104292167478935	-1.554935077781914	-0.024138050966614196
Si	7.977030692273391	-0.049571520171385074	2.719949503302636	14	1.2052544698204948	0.2528478965045344	0.36354837872670204
Si	9.411314646281712	1.380951139454346	4.145334238006945	14	0.27664244780037683	-1.0692926207173403	-0.4791789554002536
Si	5.361862164395736	2.6512445814977923	2.7336420892441957	14	-0.2657221921741119	1.8299495016935734	0.531050233902645
Si	6.788357498591791	4.088406799123978	4.086531761021026	14	-0.8177760425475785	1.1845848399307604	-0.9301698547335957
Si	5.433799523682335	0.02139146034034812	5.4324485346902085	14	-0.8764635783642146	-0.27308480936888796	0.6566443579128345
Si	6.661848517525933	1.4764258360213405	6.7865129098255546	14	1.0049154859377487	-0.9952090491331257	0.6498373565777424
Si	8.085270071310484	2.7283951877492676	5.339919410801186	14	-0.4362445818801649	-0.030185033569070464	1.5963165036886335
Si	9.368217616653855	3.9331472338128504	6.889058262897015	14	0.11257790332693976	0.7816252733041685	-1.01472759517103
Si	7.925364578255374	0.005753322042392099	8.483308608633873	14	0.5812410379677877	0.7678428632355148	-0.9472975299342942
Si	9.361198243242802	1.5025353409557838	9.853671391894881	14	-0.08572142270533299	-1.0841574661257765	-0.3775475329738443
Si	5.381308072379687	2.7186353740339007	8.225958827705336	14	0.3202563644565807	0.7037344089618786	1.1890842742410197
Si	6.87610928180996	4.092124823396498	9.80745731174545	14	-1.0886003361189924	0.3023568434387738	-1.4330387174431618
Si	5.425058961448574	0.34712564373989235	11.29223427900994	14	-0.01931568582814446	-0.8136807859936468	0.4615918236788447
Si	6.80913676700451	1.5121397027942396	12.75650922708548	14	0.3814761819030305	0.41744825932669033	-0.5525726994270725
Si	8.096488247994813	2.862226432996655	11.28186547856028	14	-0.07890156584364022	-1.0042349143595055	0.02384314518639321
Si	9.46430129995514	4.147042606056301	12.558229556786618	14	0.8508129461377574	0.7247058866161984	0.6142296047779476
Si	8.267240115307	0.24322609648296628	14.061548567513634	14	-0.16475565758349286	-0.696744344927992	-0.992441511366518
Si	9.643720010054306	1.5578201182528313	15.305413587885468	14	0.25923863588829443	0.4687117285313988	0.44372521280913574
Si	5.421098945079005	2.8978649777261025	13.985639973680781	14	1.1883347970401965	-0.0899876577630547	0.6341574707828194
Si	6.72922328409535	4.385537837171818	15.318237566432327	14	1.3945045335679744	-1.2404444170057656	-0.823270751727267
Si	5.303604570277341	5.497166195982109	0.05546907591400428	14	-0.11522357070137214	1.434517103002247	1.0123503511920207
Si	6.720191049267796	7.046849930945462	1.4123556237837935	14	-0.7499289440279151	-0.5616718411550766	-0.2679387420706116
Si	8.120328476045684	8.286881540084593	-0.00907710753429216	14	0.25222286080120637	-0.9889517501154812	0.2197485150550761
Si	9.45316325310427	9.516997883631445	1.4133171817853074	14	0.6362626918189567	0.06561075111219876	1.426599641279383
Si	8.079763549155148	5.557848518860988	2.5631434322057407	14	-0.6831380555737684	0.15662299434533244	1.6145752081196652
Si	9.461958303624785	6.80931465523479	4.060933484424053	14	-0.35404557346343474	-0.15698654863760142	0.68233175694537
Si	5.398491113866742	8.385540596233268	2.9029083494440435	14	0.8176019787174046	-0.2752522511537727	0.18424386457861927
Si	6.925929204465069	9.61334279018981	4.356816099666595	14	-0.6938012006680184	-0.7685987681996383	-0.5113625091346752
Si	5.433916513239187	5.543453995578323	5.522205166341533	14	0.3055686682047028	0.1342705760235611	-0.6849977360518315
Si	6.871046678931988	6.874891308341375	6.940394242001178	14	-0.6833555710838528	-0.47401617591739625	0.15418918604928028
Si	8.298825693060065	8.17979122285931	5.63985339042344	14	-0.05019363228099483	0.5000457890680434	-0.343215306523375
Si	9.603550924541059	9.717639781420695	6.960918697543494	14	0.4303282114279721	-1.5592344800982658	-0.48614690792838694
Si	8.144482813043716	5.3660433391056515	8.222816135637053	14	0.16776462213966217	0.4358275485972369	0.9123731779285947
Si	9.660811703531218	6.770626369043874	9.559303230504725	14	-1.6911144423951534	-0.8667016056846764	0.6130939475580381
Si	5.438214677505955	8.162146633531528	8.352490245124562	14	0.9210174911254647	1.0985176035598676	-0.5522168584507641
Si	7.051194570515636	9.680034850578153	9.492688094756502	14	-1.2860352565426312	-0.11669629982875296	-0.33177517340137613
Si	5.544460426286574	5.497058822005273	11.156649793006457	14	-0.08341565545422419	0.7074727960973739	-0.4588026886275481
Si	7.038885025499588	6.972952595932441	12.326514912178443	14	-0.8722011999644731	-0.4464701248489258	0.9244414320803058
Si	8.196153734851741	8.192587957262793	10.758976647723642	14	1.4247492167804723	0.08927263337352152	1.0714101830590141
Si	9.647801823770733	9.56943965443735	12.240525985296383	14	-0.7269710304032487	-0.09152466452343923	0.8638713329482575
Si	8.23285480117286	5.6273323026470585	13.970237417093196	14	-0.029607563314165208	0.21069796721762285	-0.7236992988833604
Si	9.675709442168008	7.01694066930837	15.24470562345988	14	-0.585205425260924	-0.13862654265695598	0.22641847647660424
Si	5.625710474817838	8.379726375517446	13.710124759506975	14	0.7284085353877436	0.06501913977803268	0.08686093658322262
Si	7.02467640343055	9.782835016520014	15.154420134907726	14	-0.1260798058051654	0.2648832405081476	-1.176157270912379
Si	5.679706764392857	10.911906037477769	0.13908135193565416	14	-0.8282237290160003	0.23619253335114718	-0.05800619290679678
Si	7.099597797715182	12.265553737479124	1.40977063535639	14	-1.0998661483002852	-0.2616703873000905	0.7208255744670308
Si	8.115597610678236	13.675495850679118	-0.004131494213171819	14	0.9028924841710808	1.529163860715942	0.40811977500412905
Si	9.584641886441286	15.138535196722712	1.3259836762977983	14	-0.6642165201912026	-0.5521188993380665	0.3409190523619507
Si	8.170784629578463	10.918822844701992	2.936902629990902	14	0.7834070492910311	-0.572719623605221	-0.7528065251022248
Si	9.336821145307752	12.310022589855807	4.342277342683704	14	2.0912676475648033	0.2725029682349384	-0.8869020088534838
Si	5.741344234886573	13.54257488033983	2.844735692949116	14	0.16993797746678332	0.9485709983993635	-0.1902399392957366
Si	6.994994710520482	15.06596961954179	4.20034657387023	14	-0.8267319737092504	0.46881585829686473	-0.8768669847889459
Si	5.5174759035707535	10.955599233066565	5.587934066131692	14	-0.0877860202774119	0.38342559395676684	1.0959408418080152
Si	6.803724798052655	12.468283818728327	6.982951196551518	14	0.10746654595048538	-0.6082746677459526	0.6487243250846504
Si	8.146468430316842	13.741602963283205	5.594341247615113	14	0.34831972191546495	0.32691089924618794	1.2799425082654763
Si	9.503207539293067	15.107540977140578	6.990408078853259	14	0.14925189250299994	0.29287100747061945	0.8871197814741004
Si	8.392551956660974	11.076785990594043	8.223720000158478	14	-1.5374759871054486	1.218975430471997	0.5621094432805659
Si	9.44510860224492	12.548817506548463	9.763357056602677	14	0.8460258051421736	-1.0348413520905482	-0.7922544798081927
Si	5.618243976936082	13.867914824958753	8.552744314519868	14	-0.16893190395500937	0.8877520162723248	-1.725942377951347
Si	6.776621683183314	15.335157782065634	10.001312212640679	14	0.922254964116052	-0.860114433854457	-0.5741836109745132
Si	5.792003918196339	11.078604937813573	10.902477961272924	14	-0.8501845679975131	-0.2486485101851365	0.08482590672232543
Si	6.871722974726387	12.402631843578291	12.478142993437185	14	1.298568366536225	-0.08710904824661692	-0.13872835842763384
Si	8.243597006646441	13.789477333581917	11.190301117866108	14	-0.7300941520356327	1.6669761343180072	0.6262207257700543
Si	9.609549443873837	15.313407340071388	12.535047995966783	14	0.4599820546379	-0.5890991071577562	0.350281989495802
Si	8.462982875078536	11.160358201698962	13.688896764026884	14	-0.3732435026679164	-0.7562798312792128	0.71803206853669
Si	9.669983364268992	12.53619866037526	15.342576202047315	14	0.02044877194273372	0.2841058523237026	-2.429801485521253
Si	5.9048123003372925	13.964718074164505	13.835917379861707	14	-0.6387684910639729	-0.030120755936066758	0.6053191821804424
Si	7.0285034042765755	15.42251692909985	15.282161512812191	14	0.2837705801899554	-0.7897077999885861	0.082491857312695
Si	10.839811623717587	0.004738878350794829	0.13554922887675938	14	-0.3237026740277072	0.19679394386732604	-0.13076178859315502
Si	12.059810774491844	1.3772267047951487	1.6313312274685765	14	-0.38572107678659506	0.49982775933689483	0.1731932539126228
Si	13.49843295768366	2.4819574875412447	0.16470527007933305	14	0.5572950485685886	0.8076659422076924	0.7507352426563135
Si	15.068498517085771	3.951078687944417	1.453962238509304	14	-1.494853231550162	-0.7631817064006183	1.0286958961543304
Si	13.36610815330531	0.023096623196366278	2.985312267577124	14	0.31580038182623205	0.43457490608526067	0.8387549764073269
Si	14.853032600106516	1.270742169110819	4.4938974109591	14	-0.96958798461785	0.3572527702397874	-0.3215938534441217
Si	10.737801537933635	2.9350820801747024	2.9976442489465414	14	-0.01584675053020067	-1.0695039655746565	-1.4151209415775818
Si	12.2437760513415	4.102392660255998	4.241124646117769	14	0.2829413987242076	0.400947933824108	0.40632977148024196
Si	10.686927106670199	0.05303312897683548	5.694583669272948	14	-0.3322631691911402	-0.40723891432144627	-0.640714560680793
Si	12.058095996055808	1.2599086156270947	7.114683040162267	14	0.506012038963447	0.35814365823321875	-0.1952613079859858
Si	13.441697830400996	2.7418265504337493	5.7599375614425155	14	0.054065459782605824	-0.25864702455412836	0.40855352047163795
Si	14.676891200195842	4.2568733635859	7.2150055916535605	14	0.8216635537916426	-1.6003752505470192	-0.7425766112544195
Si	13.399004655133774	-0.0810897888643448	8.551066395807226	14	-0.1409773042511674	0.2279737380847618	0.056004073193997465
Si	14.761880106756326	1.4140575814464733	9.78406741335862	14	1.0699202275259887	-1.074598096545466	-0.18375226924140695
Si	10.632371510857633	2.662177495975006	8.28655300776741	14	0.17716843984810374	-0.375337667951177	0.2751198392297851
Si	11.931127069745893	3.983391844585295	9.634950601080499	14	1.3522579307210252	0.07927334767293363	0.6314845496919934
Si	10.848114677060659	0.16844092291521495	11.193408552807668	14	-0.5984867269026809	-1.012090669554686	-0.4430829507001627
Si	12.248085433784953	1.4294793691940886	12.498319685502288	14	-0.01807898416915323	0.10603135496077873	0.7380386103643582
Si	13.443909413804478	2.7043626480980945	11.03474507217118	14	0.007426123496183696	1.6403209712429678	1.1294621416405095
Si	14.959414569604016	4.053798724052819	12.751329634650657	14	-0.7408035770256455	-0.34961093100724333	-0.9794389175414655
Si	13.616012270108792	0.111987852646328	13.878972741976165	14	0.4333004091780633	0.31765286320939873	0.5636395080565859
Si	15.113932132657308	1.2509276638929538	15.551066015725587	14	-2.060354991190131	0.9125441564323847	-2.4617348707080238
Si	10.99062398327171	2.8286664561471477	13.890976191028397	14	-0.3851770309008517	0.3891887265318787	-0.24147538345245545
Si	12.312756619773445	4.096123302086127	15.38599535360568	14	0.5072844789863883	0.5055024458889936	-0.6621328964397546
Si	10.858802394247487	5.44793602890126	0.0733187976154425	14	0.5447675950066991	0.4640513430280983	-0.19659442609448255
Si	12.23166843350577	6.802976385408144	1.4693760132735736	14	0.24689090258828333	-0.4852377650871826	0.7584819829859196
Si	13.57490246035073	8.162896648772708	0.1686364397088561	14	0.09965912753532372	0.5363575095044947	0.1929717386983939
Si	14.846519647242927	9.781152290017365	1.4833698873889407	14	0.20149006773457653	-1.1700131005288212	0.7732943778458248
Si	13.689601906561327	5.384848208421928	2.83993912111823	14	-0.24566525668216874	0.3228932900729246	0.07184259618717366
Si	14.909617083302274	6.918739955807083	4.327499798797103	14	-0.17419881320333272	-0.9373959462358719	-0.9750086459643182
Si	10.955222622849304	8.14259335157074	2.9462666023289787	14	-0.3949554586544389	0.8970347349201874	-1.2844378288072231
Si	12.203741583948466	9.65916263155862	4.276739151897179	14	0.003909622749817169	-0.12499582780219096	0.34785975117369045
Si	10.687318140257482	5.378804816382412	5.470010195422684	14	0.8097176842531705	0.20944661025830674	1.0600782934709936
Si	12.159386515935294	6.7290870633784685	7.008927685962419	14	-0.20193898272347438	0.2591831000133793	-0.5161211108612053
Si	13.511660790591154	8.168595482528348	5.597640994156975	14	-0.6043174795477128	0.5345816470598684	0.9747854740225294
Si	14.810320193679264	9.568034177158472	7.057383798852047	14	0.10451877370093561	-0.2646790947457278	0.7181966192771795
Si	13.442338869068672	5.460128584360458	8.615126992464758	14	-0.8207708660244871	1.3108117129602384	0.509308710204941
Si	14.745349322113633	6.914840838110943	10.157232047779512	14	-0.5530306132845909	0.05710759159740503	-0.8579212810163709
Si	10.790661586470199	8.175888899969832	8.288405609516994	14	1.6411799775304292	1.312197281617266	-0.20217835262878017
Si	12.091950850692449	9.671853594581938	9.83911340375196	14	0.27952182864841063	-1.3335737083595092	-0.1827703641196424
Si	10.827087006164218	5.3926929191176125	11.049099530537116	14	0.12672978123009884	0.7436356495357885	1.33539353670511
Si	12.272552277133476	6.767602269129112	12.650766693658985	14	-0.27931279778588264	-0.4139919224448153	-0.3863276005316179
Si	13.458738240784493	8.392122460753631	11.490384138978598	14	-0.24680091390207812	-0.055386493696097897	-1.0735460002484611
Si	14.842591682806741	9.60329130388065	12.930060830778741	14	0.6715580543223534	0.25018783094030916	-0.15695569537375964
Si	13.756201016342857	5.537843304639488	14.082630726696829	14	-0.7167249185919268	-0.23871838721766064	0.08579984141759751
Si	15.141205122773583	6.838119727766811	15.529914944885618	14	-1.9967350469273228	1.4503502266742505	-1.479853146001886
Si	10.973280682117736	8.306191227351663	13.83598629151848	14	-0.00307864151034531	0.475244650039363	-0.18886568350211744
Si	12.303125013791615	9.657531188149386	15.346457691180094	14	-0.33832069332540904	-0.0768349113873052	-0.17271811364945946
Si	10.722741937033257	10.979051632723491	0.08060259947691105	14	0.7212294951128262	-0.8495327927988556	1.3003660833760726
Si	12.098452585379352	12.220658594388436	1.5633955520649434	14	0.2785473797320745	0.889753364653528	-0.12338862986656637
Si	13.469155119134228	13.767523361810683	0.2512150408788784	14	-0.008110551732407115	0.2030885239121126	0.0019383563008596365
Si	14.929037349739518	15.339580948872598	1.534404578319296	14	0.6663456525068172	-0.33532689829062867	-1.1396784286301183
Si	13.59071207649229	11.088593922852635	3.033614531186511	14	-0.4593310507708385	-0.6298205303287936	-0.8972172833979178
Si	14.9083414163536	12.491284286124543	4.295265169393015	14	0.428607884858261	-0.1714335894315135	0.861676380336447
Si	10.784579732110624	13.757923807762236	2.810097168541243	14	-0.19210321932124788	-0.5112864044171989	0.9521198950727641
Si	12.237080402457625	15.137113693477142	4.354078864555619	14	-0.40049773328255006	-0.5892713712142063	0.03919752904778553
Si	10.905636679307896	11.09384723473424	5.6930563946472095	14	0.09266443551186086	-0.14296682554789797	-1.0375721230510775
Si	12.263608185122726	12.38609144335558	7.074087663935015	14	-0.5553417798568722	-0.04516609293797728	0.5211087980717605
Si	13.596649697151639	13.752338758370108	5.823491737552584	14	0.3721461549172772	0.8364273547609969	-0.9229129099674778
Si	14.98767796446185	15.139347713233994	7.207455758745008	14	-0.536867616800012	-0.6907264158156533	0.04537075292146107
Si	13.424128563116666	10.918047187914105	8.448165266275206	14	1.0079450193364792	0.030359097399244486	-0.07497497379871007
Si	14.868776509784636	12.210078251178443	9.873109286895486	14	0.5408458880618772	0.12657191536344173	-0.056885448097744234
Si	10.914430127231741	13.75488848967079	8.446589913749392	14	0.33968672158200375	0.8518802119561507	0.017463718666041794
Si	12.380357352473219	14.985419905754963	10.060786177630987	14	-1.1693068178973764	1.1964242657089783	-1.4502455826877207
Si	10.825157479774512	11.139008408872014	11.0406634616705	14	0.3404919917682741	0.5720940736808289	0.72060214541471
Si	12.249109493056565	12.447534999652325	12.569531068497744	14	-0.1620647387554259	-1.0268770962508575	0.40825218692811666
Si	13.716422964416891	13.642810891610988	11.307162466983442	14	0.19349778684689622	-0.2895432258547518	-0.16727559790776997
Si	14.978767526981155	15.030073056748604	12.64472330161947	14	0.5790291160608644	0.283468475314838	0.7572288262528795
Si	13.596096801300767	11.155558424674739	14.143740942886383	14	-0.2156458022957158	0.28345279157238507	-0.6766197893661289
Si	14.981610533472297	12.597566894628555	15.422169165622636	14	-0.4111593357136081	-0.3360442366749499	0.6190977355911161
Si	11.096045997364367	13.92511791046882	13.93609890284611	14	-1.2972241926748516	0.11063183371011968	-0.10662528028973293
H	0.32310111707206507	-0.08745690543103667	0.3188991086054489	1	1.483586648037273	0.1953397266982503	2.1579212389948546
H	14.125596343397813	14.500615182164957	2.4024654875560825	1	-1.3007926297486851	-1.4352370124918885	1.3201767069783457
H	15.920634423220816	0.3300195268929583	16.37491929584277	1	-1.0677622988307882	0.23732613368680044	-1.0329374486009786
H	2.383915431110208	14.902514374864426	14.734179223329377	1	4.130749120213313	-5.146813947261351	-4.9837431349941514
H	9.814592072116682	12.265553737479124	1.40977063535639	1	0.35629091973952004	-0.062412553204466564	-0.07636645599797422
