221
config_type=interstitial dft_energy=-23290.900249474547 dft_virial="-48.154981226148216 -11.529897295072285 3.2845640269451346 -11.529897295072287 -52.89624740356112 16.82590757910168 3.284564026945134 16.82590757910168 -39.594361739152696" pbc="T T T" Lattice="16.3199774331 0.0 0.0 0.0 16.3199774331 0.0 0.0 0.0 16.3199774331" Properties=species:S:1:pos:R:3:Z:I:1:dft_force:R:3
Si	-4.599345000128541	-2.160422292616345	2.1953960042554783	14	1.0529002816382043	0.7454529067760692	0.799516823895483
Si	0.2357583939985626	0.038188747193454	0.0298492387251399	14	0.14151800769999454	0.6428056406376694	-0.4168641041979526
Si	1.5000996856956859	1.5573991264632998	1.3275322443180864	14	-0.17923663696763087	-0.0552250282819926	-0.2782373044304647
Si	2.787060466115086	2.810006354386024	-0.21509730256825801	14	0.30608957414256477	0.13028433433520353	1.1475051303351809
Si	4.139937635386776	4.078607160193187	1.4039750186147266	14	0.30185393523815285	-1.2099580498931737	-0.8244192644737772
Si	2.7847593492970186	0.1788506326893429	2.699128427705543	14	-0.22987018536890305	-1.0346924850925114	-0.3518655332624812
Si	4.1116387945177815	1.3898419181576622	4.127975091928314	14	-0.038481476216124286	-0.09629072245539771	0.13133848751646424
Si	0.0363772296983799	2.9083015784655855	2.625101010069001	14	-0.0030997245739705238	-0.890744782864977	-0.0975855310946243
Si	1.2735131190145255	4.15975008799056	4.074935165270739	14	0.6011802168360681	0.2491743012231068	-0.08115462543568598
Si	0.135292612920399	0.0134966213371737	5.3731240901641115	14	-1.0030234095326516	-0.19972037594271858	-0.7582726950128595
Si	1.3965820688375326	1.3633545947837409	6.714528315300333	14	0.5147203726827886	-0.05452285941906016	0.761580936228294
Si	2.6755297403372804	2.771442247711609	5.311875214857688	14	0.3145089156239217	0.20459673429291148	1.1515247963927002
Si	4.1849644531246994	4.000842467724465	6.7705384778507325	14	-0.37941852631531603	0.10631803320397523	-0.21429417222891398
Si	2.6842119683316894	-0.1573898623648164	8.113362541023633	14	-0.974453287215166	0.6460429193462679	-0.429474861572215
Si	3.959569244796155	1.104046473349215	9.461833316388388	14	1.6782674004419693	1.1818388994488425	0.3425100523340584
Si	0.0002611196389296	2.6485691376177987	8.132358994755762	14	0.8136738440092822	0.6915309146703278	-0.18065408733062852
Si	1.441690486462621	4.141944992611048	9.521564433793532	14	-0.9896667745050144	-1.1056189964541165	0.9798024718337343
Si	0.0857288414560743	0.0971854656141105	10.958881166304083	14	-1.1479273058287491	-0.0950905304919526	-1.2437853112587658
Si	1.422791952595091	1.3606944384621458	12.22219429942292	14	0.40090833880217774	1.0459436419734798	0.6402705307920035
Si	2.8686440333031524	2.6173327008108456	10.847268840639112	14	-1.1197485057409904	0.5650127354080771	-0.6442799124282423
Si	4.211321216679156	4.071197890438559	12.048680299354201	14	-1.3823707162305996	-0.014531373048412913	0.9714222111532436
Si	2.8121605914071934	0.0804248487903168	13.568706677495703	14	0.30081649424147305	-0.483439534026271	-0.32092613739247927
Si	4.2018393097905244	1.5182638205787262	14.756980554377147	14	-0.7523180150913967	-0.4857278177612027	0.7103989710622344
Si	-0.0673851868212699	2.657740964935201	13.553055819137361	14	0.19912259395578416	-0.0037676977361449948	-0.45841830838218595
Si	1.2707060828960322	4.0149592482040966	14.8488130673932	14	0.5756643105283866	0.959171665634334	-0.5512125847127144
Si	-0.09552082791593429	5.327901432696992	-0.0981320243052303	14	1.8321521676213441	0.8549951060515101	0.4129704223011204
Si	1.3580179621631172	6.656184395977001	1.3977734271901487	14	-0.03114302741135764	0.10544617138991301	-0.2763611688783526
Si	2.6941834745433137	7.993769746393877	-0.1055412940598577	14	0.348876366217277	-0.2638761385542456	0.5789866928230819
Si	4.070577731296101	9.357613940500611	1.3159613803180186	14	0.5060094678581268	0.14610074582262647	0.11434322423975342
Si	2.885404650126946	5.327150713735069	2.81077339332538	14	-1.6453299986276804	0.8861209070572229	-0.2650349357220363
Si	4.00728885881054	6.777131748733705	4.192275803014728	14	0.8619995682751896	0.06302704737598194	-0.251886303114799
Si	0.0102652658054199	8.248883633628095	2.679430214943791	14	0.4741305901041429	-0.6029349962170691	-0.33603318092207335
Si	1.4805320327533988	9.488973438859633	3.9513276561924395	14	-0.8815147718761775	0.9754683595955606	0.47304095566946414
Si	-0.0850760423587503	5.54037121889852	5.374364408449027	14	0.5237318397193755	0.12935256576718188	1.2689322639530063
Si	1.4621557381637285	6.689150750391862	6.956765740339836	14	-0.41206359345470417	-0.14027822071461912	-1.995725630978633
Si	2.6064472758629678	8.157149040476641	5.430358251021993	14	0.27765494907545113	-0.5489039892457532	0.7405891468419451
Si	3.9548690912954223	9.447112696743732	6.839718862189643	14	-0.18045996887895732	0.16294611365917264	0.34215164025242967
Si	2.837913515796625	5.332715826039756	8.204248495348567	14	0.722547957920998	0.5715292018419924	0.041011700961682
Si	4.013017170889557	6.878593048435287	9.658619604276707	14	-0.6457094469862448	-0.8958335145146142	0.492518621132778
Si	-0.0068380705444688996	7.958485955183514	8.11687133617175	14	-0.23029056108874726	1.267835173312899	0.12645518718190701
Si	1.163957110506125	9.588623221066142	9.304851453459397	14	0.07046371240397827	-1.1188614744055392	1.524145063131013
Si	-0.073766297997612	5.5341369875190765	10.949529819234916	14	0.456214871122819	-0.828462584700242	-0.9336930403537947
Si	1.2569157019650627	6.960911014607843	12.271415351361151	14	0.7420947861174239	-0.7963723620889419	-0.7517297461941468
Si	2.53822977019261	8.396383589668453	10.902414044385557	14	0.4991975814229266	-0.32008847127917506	-0.40634288411737474
Si	4.059235346980097	9.700056026979347	12.255421773476712	14	0.27645707110679413	-1.0075166731901424	-0.6933895667062627
Si	2.6791364553499952	5.431957608810437	13.405049943796577	14	0.11685262303221794	-0.44769474231291234	0.48712367083951114
Si	4.155588493745119	6.611337097990842	14.873896872707874	14	-1.0833663370187667	-0.20607846228891277	0.7451749702909612
Si	-0.091881472948353	8.212620643771748	13.550575182567528	14	-0.24582929320159416	0.9039060138882831	0.8475116469066872
Si	1.4908625784685512	9.471984342351776	14.864904565142238	14	-0.9199275995802538	0.2899039519311686	0.003913222297265376
Si	0.0748760564630628	10.956482129621417	-0.1553988251179782	14	1.0371440340152729	0.06041763258656366	0.05358132065082193
Si	1.4662030925671372	12.335210143147139	1.281934227370005	14	-0.6115021762543346	-0.644657093578708	0.19572487827520846
Si	2.832854322792364	13.728593496407784	0.0115708640000679	14	-0.3575882994840668	0.4792553172282619	-0.041292465662642185
Si	4.180558059217762	15.168766224969126	1.3073281122559086	14	-0.5211080267401643	-0.26884582802755974	0.24129180653259688
Si	2.8202063402817115	10.877167039296552	2.6209230958461274	14	-0.1355831252894967	0.18403560504768726	0.023665224698238965
Si	4.044139367854479	12.223434617707838	4.151361619589947	14	0.3786135132395777	-0.5483324325330844	-0.2765635148670483
Si	-0.0872465993573526	13.502594448914216	2.688716282103225	14	1.5026398240122303	0.5209321631362663	-0.5872725939383231
Si	1.3606781184847125	14.951367805582802	3.84967051676166	14	0.3704309705582064	-0.014158562776991441	1.0335645411885628
Si	-0.0351205914360312	10.815428564667135	5.396853337351839	14	1.0778662285179061	-0.21431808350839132	0.45412610516073076
Si	1.2991844435167916	12.288273888049543	6.913648359961586	14	0.007319165514865536	-0.5247489689840261	-0.9551118903338202
Si	2.633538438401914	13.551603341145814	5.433279526982518	14	0.024745088932701158	0.4289117895071025	-0.13346196340037456
Si	4.018565963216812	14.971849377261343	6.716241912930808	14	0.5791232185155818	-0.39690641337136723	-0.4084126239000939
Si	2.629948043366632	10.872173126202023	8.227178063642073	14	1.6753952186888317	0.8427157641530149	-0.6688311400198044
Si	4.172789749959607	12.155706711360473	9.690476200226117	14	-0.5506965638749606	0.704282825726666	-1.4929272165548388
Si	0.07585525510904881	13.696753220435806	8.268565526412415	14	-1.3999125964983739	-0.10580484058207366	-0.49292434155229725
Si	1.3584259615989447	15.03180897435055	9.647815779215994	14	0.6021011867617451	-0.7967611132133483	-0.18584823429839165
Si	-0.0354469909846932	10.970533630191317	10.717133340587573	14	0.019166047498511838	0.5611655905175396	0.5887360670865514
Si	1.4551055079126292	12.299697872252713	12.248028823699517	14	-1.1076571116413978	-0.35495060253612687	-0.37778304622116987
Si	2.8118341918585315	13.597658317462022	10.942659108735581	14	-0.12312020647114291	0.3813250009102058	-0.6656321707804762
Si	4.175629426032966	14.958026356375505	12.218979263868599	14	-0.26731010681983536	0.30358840288712474	0.39910033754104957
Si	2.8007692471588896	10.986641447917785	13.606112065772368	14	-0.5555001599445932	0.23170261213057258	0.79911958812352
Si	4.109941516864738	12.332158307367148	15.027043540940086	14	0.9919823119563398	-0.7092784833637139	-0.4359594463001604
Si	0.0842600434870953	13.73832020295791	13.541990874437717	14	0.31956602267812095	-0.17537277989251235	-0.5779556795897025
Si	1.4744610011482857	15.0377494461362	14.8745496718052	14	0.2658993413306701	-0.165799783454005	0.6138557660643982
Si	5.449583184438185	0.1701520847175006	-0.1467981970107345	14	0.20223131739837524	0.23671729594698937	1.0243952082853185
Si	6.8504737273180565	1.3799846517880696	1.4028489401718427	14	0.6643710436209435	-0.9030588346852944	-1.2852230443719965
Si	8.283367745944236	2.7054605789495856	0.0300940383866364	14	-0.277444118439199	-0.4409779867745575	-0.5609673582973561
Si	9.407993710836589	4.12289957894662	1.440074808696744	14	1.0970944967651655	0.9034612126678975	-0.31646784076734247
Si	8.144158338439892	-0.0679237460765622	2.773580164755345	14	0.11280467481617681	-0.025136925383491722	-0.3265884826390414
Si	9.6334705190523	1.2843169440752376	3.957496607662151	14	-0.4181771676849523	0.6115944789353278	0.6368933839539889
Si	5.500827913578119	2.5742479603874613	2.7402058109046554	14	-1.147369890195341	0.9717978496405172	-0.6319229231490787
Si	6.766099443988929	3.944195826054175	4.010161174838765	14	0.365058388881225	1.1209638672258242	1.0391024449376294
Si	5.476919146638628	0.08323188490881	5.481358180500431	14	-0.07266997787919732	-0.8418652425131099	0.01440873132464185
Si	6.959262696887101	1.274263837976448	6.823137765117613	14	-1.1429897551719368	0.04472360571237979	0.5400547589548677
Si	8.136944908414462	2.5900456985427027	5.4127326753942455	14	1.185737723556315	0.6204444805578095	-0.6255820632085294
Si	9.539940728383202	3.999700069304148	6.764549046132784	14	-0.4177282526960544	0.18017689018320904	-0.2596096463859919
Si	8.178789330552933	-0.1177159972249503	8.208605929323204	14	0.6469680030404571	-0.018661853745230803	-0.6594574042436084
Si	9.61752590110016	1.2813793481372797	9.454717806227556	14	-0.292602069854132	0.44798604854568513	0.3378496668307579
Si	5.425984497069923	2.54149376567923	8.13808730683478	14	0.41442206836487605	0.2593977873076116	0.5479189987976045
Si	6.8914858306074365	3.9969093531630877	9.54986327466253	14	-1.3757892008320844	0.730811233309422	-1.2495044779329034
Si	5.499457035473739	-0.0062668713343104	10.904307161767797	14	0.09288657901152166	1.0641444965348077	0.40459041873116186
Si	7.068606545688871	1.4150236433369356	12.245613467039421	14	-2.1358367298474423	-0.8525150178596953	-0.22305315672306242
Si	8.196480186090412	2.7144039265829245	10.82425767245844	14	1.829405970028894	-0.08825370433514684	0.033576835707409804
Si	9.48242912790896	4.1041152849211215	12.318253686594147	14	0.7391552414048985	0.06944169803921939	-0.551379963669056
Si	8.20558673349808	-0.0166953369140613	13.617209650426878	14	0.29741980700302545	-0.25170915395824084	0.6948417269910824
Si	9.680667893788826	1.4373983323977155	14.838172442106819	14	-0.2636905047501309	-0.4217620598328347	0.5963455103920616
Si	5.501905032088704	2.7665625744591122	13.41185537438618	14	1.459451682397043	0.2792040400308404	0.2953868340263844
Si	6.88655719742264	4.004481822692046	14.936369746321782	14	-0.014405131777193643	-0.1687760949726084	-0.15158902723901455
Si	5.523006762909702	5.276444543850427	-0.0280050812751996	14	0.09675712096047259	1.0901170311473476	0.34474871373631133
Si	6.889853832864127	6.811681140959577	1.2849697431725615	14	-1.7711632354326434	-0.11400538100068597	0.24617330709343
Si	8.136357389226871	8.173811737435836	-0.059421037833917105	14	-0.4389136463130106	-0.185611435498406	-0.6810968550601028
Si	9.368124005967527	9.317613675812083	1.4233957917601159	14	0.42205079496028736	0.8897554215377842	0.421749718527298
Si	8.021154668526618	5.518551409070465	2.7599856235535727	14	0.45910453639213344	-1.361489227262485	-0.369885124898739
Si	9.483228806803181	6.717678070944921	4.009475735786575	14	0.38860739961899327	1.5135608509700913	0.1346086763731606
Si	5.452683980150474	8.071289639201101	2.825706172676666	14	-0.14016637763319267	0.13007093259363126	-0.5524037778075388
Si	6.719032629071869	9.400421241307633	4.361040689650415	14	-0.17615156769398518	0.26471637577287	-1.5632050380441704
Si	5.5013991127882775	5.445176790531248	5.417334909030379	14	0.02948954957997041	-0.6539544675268956	0.3204062598967453
Si	6.866010345834367	6.7532393017716466	6.852171004971098	14	-0.6334159640084887	-0.3900469614877442	0.31095590518200905
Si	8.1810414874387	8.058364217074086	5.46782891920839	14	0.6184084222547843	0.11214338652783473	0.5188292560949171
Si	9.509471330515606	9.367944486215762	6.966769886506326	14	-0.052144586997923195	0.4392185794039802	-1.555453669724988
Si	8.283465665808833	5.409729799546556	8.20495025437819	14	-0.36721426069216917	-0.14309769480869353	0.2344482955019587
Si	9.53349433729713	6.816642414099239	9.714482887030208	14	-0.7673579527721348	-0.25885091320601616	-0.467778160189653
Si	5.255946652194454	8.016405555093586	8.176422933825132	14	1.3315875294996948	0.5696741493535056	-0.8783019186681205
Si	6.787935573794417	9.378503511614978	9.366214568607854	14	0.014787969359363691	0.8283484276240275	0.9243182761354708
Si	5.50941222170793	5.44339791299104	10.880169915144242	14	0.4375386191877954	0.6956601098144856	-1.1899533078392297
Si	6.700656334482198	6.895826944604641	12.230843887462465	14	0.11261184191716572	-0.590500102446705	1.1917571953318455
Si	8.07770339033231	8.209927847495285	10.969668671387362	14	0.8948966037359523	0.27805115640528594	-0.25945692272997506
Si	9.664968075498182	9.519997715959956	12.341623894278348	14	-0.7605085281992603	0.09582252417659876	-1.3013109645812273
Si	8.174007577165034	5.514944694057751	13.667165101349596	14	-0.8094693154792443	-0.07548482398369544	-0.7958617405723605
Si	9.49186207486529	6.895761664694908	14.920604648121408	14	1.2271494885058118	-0.5381955926978685	0.6981628237331177
Si	5.22518349473306	8.182298125701047	13.648299207436931	14	1.1927079900792363	0.14639899403976364	-1.0874356254089652
Si	6.824835042770656	9.472457621697334	14.78994690879201	14	-1.2053519147121285	-0.42604629262779753	1.5163936948118304
Si	5.498869516286147	10.766729752006762	0.0012403182849156	14	-0.2406125205070137	0.4428669778532703	-0.5782652406702483
Si	6.919849951386165	12.182977393651182	1.271995361113247	14	-1.109533761414574	0.26782612765758906	1.2294490851041522
Si	8.04454119618825	13.847305012256154	0.0272217223584108	14	0.18503370813296874	-1.6607666578593174	-0.15545005609828091
Si	9.538292410662459	15.047737272325255	1.2337086940551945	14	-0.18603283966037826	2.3001262460363923	0.5420874748209767
Si	8.059996214817396	10.658691501399641	2.784889909116483	14	-0.7583950796260986	0.3932577578115451	0.4582187906093424
Si	9.382338706311758	12.121842758186789	4.119651903437433	14	-0.0013230907977482013	-0.6170004849814712	0.11706911010017441
Si	5.312593293864744	13.653080960824829	2.747925160230512	14	0.9424502250742189	-0.746698607303681	-0.790695875763119
Si	6.7308809326883	14.876002149796745	4.113874631426116	14	0.3197737679879889	0.49713272674031567	0.10334557834335202
Si	5.36948473519653	10.804477859809523	5.6257573408285	14	0.03226094400455802	1.4115098241554338	-0.028144604387000945
Si	6.748424908428882	12.294508119428988	6.97679035265025	14	1.3531647595674414	-1.444638773316074	-1.208904410932977
Si	8.172163419715092	13.542872153219104	5.44365903262997	14	-1.6909756027078653	-0.4792360339383609	-0.3089288457476043
Si	9.505440296089631	14.903762431410447	6.590023207463213	14	0.47673769089877305	1.1931044545196032	1.4588238184778628
Si	8.291576694593086	10.85151203477172	8.24090316466331	14	-1.490571569860519	0.0493909332000446	-0.4856704821125635
Si	9.718138561975222	12.1770695618204	9.44174342416824	14	-1.1031005987930314	1.6575517477670043	-0.41941746889139175
Si	5.40491540620379	13.675945249208603	8.104696633006657	14	-1.2678572848186525	-0.44101321091744344	1.0299770779353599
Si	6.7146425551423645	14.985753998034342	9.547137838431201	14	1.1372039968700076	-1.0340659067259914	-0.07983924795389823
Si	5.616242793985003	10.85779522608346	10.90933371481719	14	-0.3104414270074474	-1.2323837447165693	-0.6171907467751622
Si	7.015778778737927	12.063254039201961	12.204046484517313	14	0.06555727212153967	1.7012122014295028	0.2684815024036948
Si	8.294922289966872	13.561525887425137	10.779132934855921	14	-0.6122349412705768	-0.24675257712205936	0.25799010714483056
Si	9.538227130752729	14.840522518857187	12.34317429213449	14	-1.162975985267576	1.1349956745105323	-1.2126777651008265
Si	8.252245548979314	10.76065872040165	13.671783654963162	14	0.6507467565294788	1.2204167921144722	-0.35213575643162875
Si	9.381424787575503	12.40365612850156	15.01305732027992	14	-0.2726659763122358	-0.278051927736882	-0.4473502142000125
Si	5.5186982888673635	13.542953753106271	13.468273536372404	14	0.2785869747540048	-0.482417005440448	0.8355400663150138
Si	6.682149480073062	14.990911110903202	14.9911069506324	14	0.09175477844959248	0.5240311163786407	-1.7701990709375879
Si	11.037869857080286	-0.0289516399663194	-0.1213716721699647	14	-0.685234791962349	0.7484657279902188	0.2949839418227172
Si	12.233259244122562	1.4153337229081644	1.2945658899032244	14	0.3446067887226391	-0.1542796889565495	0.5777947283966612
Si	13.613929334962824	2.7346896585322678	-0.07017590296233	14	0.5507068482962411	-0.06894856003881498	0.7571576066355115
Si	14.954403321385357	4.195229718930118	1.3297028013166885	14	-1.3107829165806526	-0.5943662735166115	0.4803770904794426
Si	13.791441729502651	0.08228532621769019	2.6538241703512573	14	-0.665700047960928	0.36676097482422704	-0.16297362448609823
Si	15.086774658345233	1.4490997562172483	3.9847836099302945	14	0.042773936548111506	0.48432090893001783	0.7973666085162432
Si	10.907603797209283	2.845861344806545	2.709050973984868	14	-0.2585315819252538	-1.0430076968084023	-0.6476871411985026
Si	12.223907897053396	4.148652503336052	4.035408179927771	14	1.4708023410539006	0.3089283315265403	-0.1962478410973266
Si	10.971039549491742	-0.016058857794170402	5.376322805740999	14	-0.2900949850564556	0.34110185795021325	-0.0174655184397659
Si	12.300122191665974	1.4563621461749778	6.653573199587704	14	-0.11812609149728731	-0.8529150818475104	0.858306432593329
Si	13.662921907216989	2.8306348058614623	5.460533889295795	14	0.5428968587757593	-0.40378206321850724	-1.1726207155445154
Si	14.997765501425103	4.092691300717952	6.8730279361306	14	0.1587313007078539	0.3739240742461596	-0.6824721392958499
Si	13.646569289829024	0.0112771044062721	8.013875958591456	14	0.3941910690427588	0.38347598762104174	-0.45103820767123287
Si	14.976451610897476	1.3371936709584815	9.423367129578569	14	-0.44937727363441726	-0.07875038485081552	1.021139160507883
Si	10.97007667082319	2.729483585731109	8.093696968216747	14	-0.6077002828174316	-0.5606290008372247	0.16217401073153218
Si	12.153079194993742	4.037562416948941	9.585179705827755	14	-0.16312711947371106	1.3928646825947841	-1.0229343062424106
Si	10.805962977755936	-0.0178540553118114	11.028583789920853	14	0.6163278838297205	-0.399889666874335	-1.2190404794365968
Si	12.201957527405876	1.369082906862759	12.216759746937699	14	1.2402384714696215	-0.7522727636377621	0.343233304260616
Si	13.437624618753045	2.705982818227445	10.783914688243819	14	1.857203218087143	-1.0453828839031554	0.46876726440631394
Si	14.86007385182204	4.020801800125146	12.170476290937428	14	0.4953823182383588	-0.09102252765441429	-0.13817634211539806
Si	13.790691010540728	-0.0360018702174186	13.543916631774824	14	-1.4362520848722828	1.1180140380920185	0.6645325090350487
Si	15.066472606418456	1.3177076179033602	15.035285129543801	14	-0.3359074538719181	-0.10409351288098312	-0.2883772295920647
Si	11.097829454169498	2.8236498555200957	13.548306705704327	14	-1.2030338061554828	0.5631432847297974	0.6852962413795006
Si	12.374263849144548	4.19865691419107	14.997308542056977	14	-0.9231566507518278	0.18277267811443051	-0.19037003722493606
Si	10.926926650490074	5.546621770255397	0.07951093005406319	14	-0.6082862377198933	-0.24487438468569117	-0.3006041209420288
Si	12.257543370543015	6.997288244306224	1.3974470276414868	14	0.6420350803732211	-0.49028201661478105	-0.45877466357955843
Si	13.712289838952117	8.320593614469137	0.041142663108845096	14	-0.41902460399847313	-0.8282684662485709	-0.14867545069022275
Si	15.112217503163436	9.658668564209005	1.2741659181118494	14	-0.608975293945693	0.06386934147886246	0.8526618279734758
Si	13.676222688824966	5.672448796264599	2.7328781410371934	14	-0.35496474361538766	-0.5053214400744552	0.39425149001778237
Si	14.946798211901532	7.13277669695582	4.210488897830068	14	0.08108443426044593	-1.2892627650510131	-0.9600142168477466
Si	10.93417272047037	8.280789189509807	2.7451344440894516	14	-0.8014533804226185	-1.0435424867149934	0.42779952934560644
Si	12.205955921876987	9.584069947362305	4.155768013496884	14	0.0552630806407308	-0.4037342406595525	0.5952877576633527
Si	10.78244589027484	5.370300734068185	5.29767683449089	14	0.23717186736759158	-0.25384908491620006	1.0616394686213877
Si	12.170166211366197	6.531614008230148	6.801105795582929	14	-0.40942255406984807	1.5705697121232027	-0.8349273719172224
Si	13.51463859225984	8.219164954722421	5.607772725697223	14	-0.8505185545786004	-0.24943578263416588	0.11934428119797347
Si	14.983811920719804	9.477255695062667	6.885316879137725	14	-0.04861008851431562	0.41684893467656386	-0.5666744407764888
Si	13.554100297693077	5.3809413593545665	8.152122487427246	14	0.10623524361266647	-0.8097904465337307	0.7944178078245654
Si	14.895161803303205	6.76784568157427	9.425978325967867	14	-0.2109337375754804	-0.17648426872241235	1.2699200826170072
Si	10.817631761620603	7.9278207175867195	8.168132385289118	14	1.2518876354541486	0.7473634951394712	0.4085563486874902
Si	12.269538553956345	9.505097576563534	9.403750516703985	14	0.28897783979485125	-0.5336966726086734	-0.17344085135495307
Si	10.925555772385694	5.498787916398982	10.963989319240644	14	-0.4358028659861634	-0.6506148588265552	0.37795402472495965
Si	12.28563005170538	6.887405836249161	12.251096979456943	14	-0.5007165904460701	-0.06589511536060713	1.013466468011497
Si	13.637005783053226	8.130824916877051	10.913250509401136	14	-0.17912196567035227	0.7324222879030268	-1.551407521282671
Si	14.9350478281497	9.630353403362577	12.067089233898738	14	-0.17043548634623198	0.10829649874782918	1.5473405468872607
Si	13.639747539261988	5.453206219428334	13.51405107307225	14	0.19741795112852598	0.6549032053900302	0.7579096549416547
Si	14.997357501989278	6.797629640389678	15.026668181459126	14	-0.838410448294427	0.8229287947196873	-1.2148765743706171
Si	10.95507861156217	8.308174111642547	13.764562726670336	14	1.0444917387991919	-0.5402648182595238	0.05209162222832814
Si	12.247327064669895	9.767163774184255	15.279285112146079	14	-0.1970052887246422	-0.3314285884042201	-1.4277959765848478
Si	10.584011284665776	11.055658632482366	0.2921439160299231	14	-1.997422817600463	-3.38333317452531	0.7987845731003048
Si	12.396540618340728	12.047211501385222	1.2026517770000051	14	1.404776870653562	1.345329058993758	0.5623123034903255
Si	13.823722644865324	13.598833355837204	-0.0190617336418608	14	-0.13924592192857968	0.23221811874726225	-0.09047565355281882
Si	15.236412531429325	15.089385854734527	1.3632893148740084	14	-1.5498987966808082	-1.0458688228086632	-0.10580509769260568
Si	13.57663818652819	10.834751417947924	2.8220994576639513	14	0.6977411624606132	-0.23868470573796668	-1.1731994713520808
Si	14.99427302625442	12.166102536985358	4.02682387179796	14	-0.915608142642405	0.4669399798552847	1.0921134944284427
Si	9.770068730167347	12.718142093637397	1.9554923359889083	14	-6.137741848925899	-8.958964551728513	5.4802942777110495
Si	12.565582944592778	15.081405385769742	4.206457863404092	14	-0.6303761461884776	0.6495586487610383	-1.215901931172292
Si	10.776913417925018	10.834914617722255	5.475531948556815	14	0.23184068048626452	0.19564131735230367	0.5751428903694605
Si	12.092760558401006	12.378017443954159	6.747429389805462	14	0.6417257764032073	-1.2944044614702452	-0.6965993345879355
Si	13.58900872942248	13.55979596981723	5.450480783197006	14	1.2211670406468913	-1.1070958393500097	-0.1873574731213186
Si	15.021347868815933	14.922660965277977	6.644172892586239	14	0.5272550253395745	0.3656245462727216	1.083840705950334
Si	13.591440406060013	11.041802971641664	7.987388635217535	14	-0.9613002837288847	-1.5145250154651468	0.12704499874234898
Si	14.814769594467755	12.274091827660179	9.374651996940768	14	1.174162093183944	1.2226315422372476	1.3558317671160312
Si	10.877623998664678	13.727663257694097	8.044410636368786	14	0.037884208450253885	0.24081975159581767	1.3870185033178313
Si	12.349359563581636	15.069720281927642	9.467480028580239	14	-1.4888854389915662	-0.003398487012171731	0.26176654663906407
Si	10.86158146084794	10.806942176401922	10.731070601315439	14	1.1348092693748217	-0.4731815951304762	1.4761101308768143
Si	12.119329481662092	12.326234155558934	12.110924693284044	14	0.3474943971076975	-0.827088843127687	0.13417467379511958
Si	13.557494852999163	13.672501733970218	10.863425618297882	14	0.4837092429743546	-0.28032067107138064	-0.4291881833290184
Si	15.016158115992207	15.017577954028887	12.157909908313941	14	0.3287937196721324	-0.7777331340705284	-0.27996945808464846
Si	13.485948071932453	11.0463562453455	13.579608422421012	14	0.4712046722498144	-0.5713931903705566	-0.24065134419734796
Si	15.11319670180942	12.317927287045485	14.76314950584686	14	-0.7667380592794472	-0.31333906270325435	0.5269333800640239
Si	10.829790144808262	13.553447498595755	13.567711158872283	14	1.364008396255166	-0.04469095267481391	1.4589611155019586
Si	12.404831166876743	14.96326506913153	14.94257133774636	14	-0.08220055107992222	-1.0971477186452925	-0.7687178103759611
H	-5.947024256587789	-2.766735566219903	1.3881332165204168	1	5.722715570810787	6.924971103385861	-6.182825666493631
H	11.291834817903217	12.06745480139324	-0.36640960533698796	1	1.6213174176006895	2.927065595743428	-1.4242974735757223
H	15.01511853342972	1.4563621461749778	6.653573199587704	1	0.07315771655842941	0.08748185851803839	0.011965924159969159
H	4.014180785280538	12.288273888049543	6.913648359961586	1	0.01286966768000121	0.0862284446744662	-0.0009078572885442866
