219
config_type=vacancy dft_energy=-23078.301874647506 dft_virial="81.1095029333077 -70.96308151373296 -0.5856877404795164 -70.96308151373297 28.66157822952226 -27.97277645022592 -0.5856877404795165 -27.97277645022592 48.29861578179675" pbc="T T T" Lattice="16.702335706402963 -0.5015571902730664 0.1747612812646008 0.08980370295620241 16.320277265634882 0.2379948525311192 -0.22023129908072042 -0.375323998585096 16.469354086266122" Properties=species:S:1:pos:R:3:Z:I:1:dft_force:R:3
Si	12.244007979381026	14.413265386857814	15.351852782179703	14	1.3341915449679407	-0.8260393179360026	-0.02587971771048251
Si	1.0989456599177245	1.243365187654678	1.5043156313192054	14	0.39015263391640226	-0.2060316681720861	-0.40393427265346005
Si	2.6435726929193355	2.469407986309654	0.2487900129534688	14	0.8817870519295812	0.7262158967707214	-0.5098023624264094
Si	4.195250001744769	4.0518932792754025	1.321738720751922	14	-0.6422975902264082	-1.0648890886355227	0.43980710541176204
Si	2.6206605498000113	-0.1565131153494216	2.7067043284605035	14	0.8196393225730898	-0.17564326017219192	-0.25136951094544924
Si	4.080787879718568	1.2522035163657936	3.9882085170933994	14	0.11337905974469789	-0.45392298784043894	0.2547065485404695
Si	-0.06182151080879621	2.708131428615409	2.940274167864938	14	-0.1943534506974415	-0.47784120930218055	0.5161625056568596
Si	1.4048848510885206	3.959597999819243	4.3311854691931355	14	0.3062140156400599	-0.42578378277461043	-0.7476609720250124
Si	-0.06878321952698636	-0.18823517886296068	5.710006525063795	14	0.46003399096536696	-0.05152032262619123	-1.1589756024999576
Si	1.2943497611045056	1.2747781018372366	6.939834314176452	14	-0.29857063374432374	-0.6096486664290398	0.4093400215890713
Si	2.7437170232274726	2.464478307788612	5.563479768643779	14	-0.5719889154732348	-0.5827325361640057	-1.1231760462432796
Si	4.054254511733109	3.6399927371416396	6.90047208449403	14	0.17253196562428072	1.156083623235855	1.6959470919549038
Si	2.505501588471005	-0.24447696201692323	8.290472648603933	14	0.830474474613258	-0.2158684600164406	-0.04361520220886395
Si	3.960852978995278	0.9269817623291321	9.77263313489535	14	0.21018580303784934	0.43946591973577837	-0.7125900670160646
Si	-0.07620447454798553	2.567130925371354	8.38547006032061	14	-1.0201960790764526	-0.3275356778389839	-0.3518004842978814
Si	1.1963126594794307	3.7876407865405093	9.844830365682842	14	0.6550070780449642	0.6164322707057185	0.3658063234188561
Si	-0.0052923023308949204	-0.29392915743156595	11.145127491484429	14	-1.0411287330404382	0.20358140480198494	-0.8097143418162543
Si	1.2571749718234548	1.0929665447488133	12.515278997467911	14	0.705131804703379	-0.8386467328733486	0.04712347541820601
Si	2.6730504993977022	2.3644425975156844	11.150837563181515	14	-0.7807618961376629	-0.18190467295834853	-0.8393663852524581
Si	4.003980146205804	3.5582603383402285	12.532840350545076	14	0.7277256498147123	0.9078107515379921	0.3253690073856952
Si	2.589063817096329	-0.4161500921266476	13.915067062288914	14	0.2808955702209658	0.5788650795414388	-0.4181095476150324
Si	3.9996386869523572	0.8648644708090732	15.363563693052743	14	-0.2799987686852981	-0.3477749046981256	-0.6009220778619252
Si	-0.20630955272180485	2.1898049759834755	13.904863463289091	14	-0.4386881603764336	0.3409640467050533	0.24841993892217543
Si	1.217722503957936	3.5048359917918512	15.22607078140722	14	0.2167315800724143	-0.1163222040046714	-0.13689104656585604
Si	0.1470046845749372	5.365858147661261	-0.02325805615452968	14	-0.5437826045585503	0.5324252610278603	0.26928702970049717
Si	1.548956794712804	6.694475023258135	1.329823393526431	14	-0.5360356071184121	-0.005686770747103521	1.1527401578775343
Si	2.9628270293293393	8.111953114121087	0.12035434116694473	14	-0.07202283067011604	0.5965098040220191	0.5545498794182665
Si	4.323866149897487	9.554652777159662	1.6092492696413447	14	-0.6509627293763712	-0.7587848591926332	-0.41659773768678526
Si	2.7792090375015106	5.152780731207178	2.8018304131419667	14	-0.1920489689989928	1.337045214762773	0.22631846047965049
Si	3.9722614248471944	6.6945953408355985	4.257148382116944	14	0.10702380161435589	-1.039474998098519	-0.1970348564358239
Si	0.04937866800619324	8.129054920895442	2.7212326759391265	14	0.10930694313864737	-0.377924199903246	-0.7609042213080311
Si	1.4261493118275916	9.403757824246764	4.122011689696732	14	-0.6870592482975262	-0.5591495868360113	1.551492367758236
Si	-0.06363630093552557	5.262251344846141	5.542305546087805	14	-0.4047068898021645	0.7083940231335829	-0.05390605125275664
Si	1.1154876557413838	6.518174679648491	7.13790545499699	14	0.03302224828985387	0.45933490742881866	-0.47123038330301575
Si	2.4776363717461325	7.798580970387039	5.673568680944703	14	0.381969834124499	0.9255884021636239	-0.03086791914210179
Si	4.018536902001328	8.983506908021596	7.082676344786672	14	0.30512669520016933	1.0929843278003768	0.31212652943427244
Si	2.542121580033756	5.07471801851838	8.31514443629365	14	1.0313695885767522	-0.11367705085130307	0.5197972772479529
Si	4.118241738936233	6.428121986150039	9.67195071764356	14	-0.4093677895265289	-1.046471489895706	0.8358018048366047
Si	-0.30208735761452427	7.947607658694336	8.479055411579564	14	0.4653662062888221	-0.2085176699061373	-0.5671889189510504
Si	1.1903168335358718	9.174305519715498	9.783379834071223	14	0.24820962250698728	-0.03624769991397963	0.8916169017895713
Si	-0.25069838341822476	5.147528534735438	11.266852116172476	14	0.5293116524851609	-0.08852624149908253	-0.6056128024080034
Si	1.2367293390421161	6.462464299128322	12.600136311128425	14	0.24386214052114885	0.35265126304831845	-0.5751598596645735
Si	2.7195582563194374	7.833033574477995	11.0935881203163	14	-0.34555012726460144	-0.4673166467846865	0.29343022287775167
Si	4.14315917501327	9.146037573321617	12.527384282622634	14	-0.3615969097887096	-0.5620323101209614	-0.22861008665149846
Si	2.569408603955822	4.92981889154904	13.896113701683607	14	0.08379977858905434	0.10898221253671267	-0.2898728415567948
Si	3.9560636709812758	6.334895916546008	15.183125761640353	14	0.44011306694485963	0.052755738732522386	0.19900586577424945
Si	-0.18131858923631905	7.883647168730646	13.93933110707723	14	0.8737358927300696	0.18751868142489186	-0.044900240647873964
Si	1.2975164529002259	9.178331145328103	15.399282973861986	14	-0.26373369931950935	0.46228807899954083	-0.5646355542576114
Si	0.24705543454504794	11.17780541130781	0.268201248784121	14	-0.291456128212942	-0.4522926499569331	-0.5284171649442815
Si	1.7241926619773968	12.381043015801207	1.7841960405045338	14	-1.9084345484753495	-0.6304838755013918	-0.018130406275556194
Si	2.790131199811182	13.7189343713275	0.3359684532125332	14	1.495654902188984	0.047552592896138716	-0.7833288876892986
Si	4.436122449670205	14.815451955688927	1.6553843762884388	14	-0.576976859794322	0.07318959826439925	0.18181931226171963
Si	2.911409646816139	10.799874531877688	3.0661514200529147	14	0.4665676838049273	0.4175763003716337	-0.6252871574283084
Si	4.308428736278033	12.12982826944637	4.415045149607186	14	-0.4688847639194448	-1.0899303689011048	0.7652169933720475
Si	-0.051402342816017604	13.676308527356401	2.876734789422369	14	0.567060877906107	-0.8089584368521308	0.24250793934902692
Si	1.4585364641721053	14.733991942514272	4.307088532151297	14	-0.43486055588632916	0.6328523777223122	1.2171188353203182
Si	-0.08141990731550149	10.72640728221698	5.536374892165371	14	0.9013755320321936	-0.11594039486462941	-0.33288100579957175
Si	1.280917640442765	11.962257634512632	7.024965684541185	14	0.8062945146299253	0.1073888985698169	0.34149960794324014
Si	2.8394781173455446	13.381864678065687	5.768168376224766	14	-1.2046430609753636	-0.5116113921296656	-0.5763304839168369
Si	4.071879365753932	14.822711116195844	7.005739938309122	14	0.33250716708602224	0.18098318881160746	1.0513187947557812
Si	2.618389555525402	10.529786636635853	8.54083848760667	14	-0.43813897228005	-0.8222479660309122	-1.9024060778311984
Si	3.983262127797709	11.758962705537254	9.827479568366238	14	1.4459716343140387	1.3133805042855982	0.4594714331213186
Si	-0.0022275462605250798	13.217106466505141	8.606170932168927	14	-0.3748730692198262	0.10684125313662536	-0.021639707927026307
Si	1.3591357633357861	14.623827831727432	9.961789077441393	14	0.17545942614180132	-0.0891679893869915	-0.22307886777626387
Si	-0.03791173444301012	10.505604474643311	11.362290692339851	14	-0.001828055882625284	0.19001393913809558	-0.4518586473788922
Si	1.4369478144048708	11.87525967061976	12.652501194564145	14	-0.763451672459234	0.24456276672088922	0.49046687908729975
Si	2.8007241598602954	13.257225694279098	11.33481984989666	14	0.04089651544333938	-0.07596407801537103	-0.4503033857707345
Si	4.151872172914529	14.59912596464335	12.762626870569292	14	0.2023698999751312	-0.2326402942408306	0.017706431008263773
Si	2.796598269599803	10.466875583320034	13.987635272273584	14	-0.3598341599812161	-0.19340291306058274	0.009753230921449722
Si	4.091103440908531	11.83028429173321	15.392331291608585	14	-0.07884165908968077	0.9402524442465565	-0.11831326796459407
Si	-0.11574216736420713	13.275428741102731	14.032846273082663	14	1.371665919230163	0.580674623465759	-0.6865769089394664
Si	1.1660895524517814	14.8204417929987	15.545365223676377	14	-0.6704079989126511	-0.9482506386764732	-0.7317864535573542
Si	5.734260543387321	-0.261022299995512	-0.07655372973812037	14	0.26022799721548745	0.3343177394524705	0.9659071902415262
Si	7.087198280406312	1.224009097380363	1.4266088581304006	14	-1.4581383617995114	-0.45250348059318524	-0.9873864611965749
Si	8.344436753173428	2.6216999599830917	0.10629723753338362	14	0.19948537691645707	-0.07912705178021721	-0.19940747242525658
Si	9.690165462009444	3.794732839300951	1.5769389868602102	14	0.587079761039312	1.4493330974096004	-0.3082531592694694
Si	8.283673034399825	-0.3279589789239386	2.550610653554737	14	0.9566429835519685	-0.2831157196649136	0.7939881761255686
Si	9.594344209102642	0.9573669638708631	4.101393935936523	14	0.156806057044127	-0.47118590318097725	0.7276289762546747
Si	5.532795444235855	2.591431733863894	2.6080907051100866	14	0.09604621033945164	-0.14392121984273692	0.4551846292210357
Si	6.821767678058764	3.91634550179886	4.112464824140559	14	0.018817919838163787	-0.07501893969968461	0.16696886504307634
Si	5.43978160146985	-0.34375901635324435	5.292385884768159	14	-0.4489941789417151	0.9805799740825469	0.4341177635593384
Si	6.746607626926253	0.9815959160324184	6.806188222854806	14	0.3013903649489302	-0.7011913286897201	0.42125298097944536
Si	8.080100706565297	2.3566319814453958	5.450936043547123	14	0.3254646525036046	-0.24320856554876724	-0.4886334238835021
Si	9.47473182633005	3.4594294749193923	6.931570836113214	14	1.1325726648568248	0.4135376081347451	0.4987502090972208
Si	8.103845046262073	-0.4227007157885068	8.428782717129724	14	0.06131083457478311	-0.2687000463559074	-1.1509699518646124
Si	9.598336413165953	0.6299276900384648	9.896907823794622	14	-0.25637082501420133	1.1917096298834227	-0.480453452307451
Si	5.415027930984359	2.2258634855180666	8.288360406688478	14	-0.5554646786911752	0.12053393162960598	0.07582318144382692
Si	6.888306640550577	3.550755529445991	9.54630073199079	14	-0.6750748121792519	-0.2903127576770721	1.7207065790773977
Si	5.413726161639311	-0.3362074172899939	11.106244861034392	14	-0.3018544494592169	-1.3139381770295384	-0.3788513404816914
Si	6.698129669673565	0.9277588133502455	12.510589954101796	14	0.7793025367579468	0.10586603288869322	-0.3814862092137791
Si	8.180443895091742	2.147398043160261	11.104267976393581	14	-0.11339088682917059	-0.1076442093281076	-0.4385606335525543
Si	9.601519815736323	3.330119829618799	12.512317848200357	14	0.666654699366299	0.801462893512303	0.014741689463601024
Si	8.218551145598129	-0.39301235354958064	13.665570183567853	14	0.26008401531755915	-0.8954375642953115	1.2625469238904183
Si	9.5950243376308	1.011656928545986	15.200150698851326	14	-0.3886457090882635	-1.4544845640290487	-0.17270860055977488
Si	5.365371864119016	2.1692206437725616	13.902562389620117	14	-0.7985092077205169	0.6181649385809663	0.7188157414382711
Si	6.615845815308783	3.5633688221499997	15.350016268045932	14	0.428312207746444	0.6350699560609399	-0.14679931513811068
Si	5.5804712843054585	5.557786407721342	0.24580212644647795	14	-0.6428961435449387	-1.3767592788693763	-1.749259217878706
Si	6.805143799439332	6.738466137517943	1.6724260242740614	14	1.546731966257982	0.8931801338242215	0.06906425977822166
Si	8.361052276405536	7.888501648765774	0.0987824021743579	14	-0.09300664962997258	0.5673336721805747	0.579926174707064
Si	9.817852491091756	9.138410775772453	1.8055123046450126	14	-0.8560441170221306	0.023189827324543583	-0.6485212077643585
Si	8.313662190582408	5.397670449357897	2.901331378626171	14	0.2479232013743228	-1.054699541141244	0.020732107749014034
Si	9.86057859971074	6.520901878070979	4.307878951792127	14	-0.168873025643178	0.09918064483524416	-0.03206039778958647
Si	5.485824798856381	8.119469620557577	3.0760609094189415	14	-0.5168196801766894	-0.7476296045401066	-0.7227582743361861
Si	6.835114573769802	9.176432801328138	4.531825056077009	14	1.4876945030072737	0.4609433909171033	0.5346400111506358
Si	5.240930067473268	5.070695735060703	5.515379474898126	14	1.3226192570324864	0.8974401982291748	-0.07537889444450534
Si	6.907393687353066	6.31447869208157	6.895141347381446	14	-1.0558179719555083	-0.8274480265409117	0.13997174496045747
Si	8.321436042948472	7.706031687156235	5.79658504851301	14	0.7725826958932078	1.0004880425764535	-1.0294433164708974
Si	9.76915729376865	9.141046064934379	7.101405781011702	14	-0.19199317601354557	-0.7523763791821639	0.06906014600970942
Si	8.166562254591978	4.929269107063134	8.279655764174542	14	1.1835486844867407	0.2370265999170032	-0.10328901402630877
Si	9.64950313405944	6.219327541238137	9.724063268382102	14	-0.17899212485168478	-0.25360585835291405	-0.26068231152555754
Si	5.63710577066364	7.605783750045283	8.374100049250384	14	-0.8369796281837646	0.7038171985531874	-0.6661556478236583
Si	6.959452763612734	8.998033584422753	9.687149167185552	14	0.42945506406124984	0.35153488911831016	0.33682328158695485
Si	5.493533479201319	4.862907278782584	11.148757071737887	14	-0.26349175830888344	0.43577226983285366	-0.6216277032261418
Si	6.891192591332217	6.221767314336685	12.57415272762887	14	-0.2439955808872646	-0.4257547292844927	-0.30470297704340893
Si	8.239813935259734	7.523526632919937	11.114707197315937	14	0.4546418688879524	0.3847877655553813	0.0494811789967818
Si	9.772217036606627	8.776395238116706	12.524824191946621	14	-0.2775035109720944	-0.3781622842558917	-0.9081488518875914
Si	8.195100915535152	4.66784240632115	13.930424264190059	14	-0.20887659620882992	0.46704359539968665	-0.3848073059558144
Si	9.575731748300145	6.083575892310893	15.179741829774214	14	0.1096391299460105	-0.15328852785563243	1.0742998483283288
Si	5.399261315104349	7.621288006763327	13.853733506099829	14	-0.05083717994262789	-0.2627654210559416	-0.6431421983240768
Si	6.749120927433252	9.04649650197826	15.038791458854101	14	0.8695097669153421	-0.2910061847819161	1.55010577065908
Si	5.7070520601061	10.80898858837049	0.18387867991233137	14	-0.1970376846516761	-0.8207446407502217	-0.6818486462557141
Si	7.104951807391923	11.79370941926201	1.658434092661626	14	1.224409718676662	1.044073419963604	0.4960862868750154
Si	8.633329283126209	13.10466969036623	0.14871586789885144	14	-0.8145279651966355	0.4051997706920369	0.6932347861659899
Si	9.886259718189173	14.651131566424146	1.4900546562349437	14	0.0495315726610567	-0.202939656914076	0.2926036125173241
Si	8.399553901193606	10.515204814678357	3.2946461971968732	14	0.04815834530956561	-0.2145613100716773	-1.0320421897285028
Si	9.80494174659902	12.012296378117407	4.513795801309714	14	0.4972471409270623	-0.9378042377607114	-0.4606543986791187
Si	5.7453097075843145	13.225826148716259	3.0354637534900624	14	-0.4822992488167854	0.34225962667587595	-1.6497312167147098
Si	6.956332861986027	14.738236479274763	4.17954354465349	14	0.8475525274812774	-0.08609731830313865	0.7092558576368966
Si	5.471513691448177	10.563158053607111	5.809669585062082	14	-0.09362551468053222	0.23630129110618942	0.806894096390584
Si	6.941677512620082	12.061765284306697	7.154180078426288	14	-0.3149912549819815	-1.1332221260606943	-0.5513601661580907
Si	8.257189798738308	13.349891952932435	5.639340001234024	14	0.1349820008656461	0.15088197327597383	0.7626669711155246
Si	9.603469963137696	14.534426858440238	7.21954594453784	14	0.22089599935945817	-0.06196929464727302	0.07627158221166075
Si	8.384368820271332	10.52837791833306	8.423961658643892	14	-0.6911542477409259	-0.15788489283646115	-0.10355486631641209
Si	9.789571176078157	11.765424762093481	9.791136975662639	14	-0.22151794973640201	-1.3647391043871522	1.3168090732300155
Si	5.401264936984597	13.345182856636741	8.399976683792191	14	-0.5855057303623173	-0.6665006901576221	0.40559854912719184
Si	6.811945084720905	14.43100387414624	9.89915709406219	14	0.1060832912882457	0.817993043836599	0.5574783683779152
Si	5.5282735086162145	10.310362467970611	11.040025074338349	14	0.005946195273906462	1.1240651344629866	0.25954331186873203
Si	6.91126390276145	11.777130659734125	12.448604677701452	14	-0.010222971863440776	-0.6991470428496703	-0.10704077090946884
Si	8.398325659257008	13.074114038923094	11.12711160533685	14	-0.9719996814081489	0.24344587856981692	-0.01883926001232102
Si	9.615551853207911	14.41442177246343	12.576635948741506	14	0.2602081997045223	0.42658673896609267	0.5009083949029531
Si	8.292663431160234	10.135156680100385	13.597834729611272	14	-0.6290517698380693	1.3244825370579976	1.100939070550383
Si	9.676629734544889	11.412401292275607	15.145244106591706	14	-1.0085548855184183	-0.7269833717087856	0.5884085082687646
Si	5.667579539311003	13.158297908365306	14.035306099110791	14	-1.9025361757603978	-1.2458092853667866	-1.4308131686780416
Si	7.053479279322386	14.235477784304534	15.334156071827895	14	1.193431756226858	1.8760591902840449	0.8295938710411073
Si	11.188079195561155	-0.1571147032367352	0.00688818130974072	14	-0.7617994801805068	0.46160236521065734	0.6982060183024961
Si	12.520123451038252	0.9549923627934391	1.6656865688586844	14	0.24763986556804246	-0.4266746707680417	-0.46036386377794203
Si	14.412894407660636	1.9996564134233645	0.3390850126843107	14	-2.4807188839498693	-1.7566143788680537	-2.699906640934621
Si	15.42683904125588	3.687359427880262	1.6832646327104948	14	4.775057829021141	5.465445116045066	1.9234616306294867
Si	13.96018448275997	-0.4890023852803245	2.975654219948837	14	-0.5008266337537723	1.1552796386022446	0.4577320803722384
Si	15.239322425702765	0.7635169647263088	4.548108034893632	14	-0.05588785923352677	0.7550953230582207	-0.12793228718833208
Si	11.050678193176193	2.4027002449938997	2.923391272238468	14	-0.1040552034117129	-0.6029601930492067	-0.5659365335496063
Si	12.494205039559825	3.5753638161920467	4.2441440572861815	14	0.050775473414944344	0.32309177940364	1.6617789020238598
Si	10.989879381775829	-0.5710088407859568	5.547912010982075	14	-0.3324228348315214	0.8278678880396917	0.025199403242771323
Si	12.372926592554867	0.6548100334887413	7.039069578343759	14	0.30363031190384315	0.86825506751911	0.20410591028729516
Si	13.815980524015972	2.3295137363472707	5.904047027039332	14	-0.8086848712460669	-1.8667674727675616	-1.3531657880095695
Si	15.258070243779908	3.555782130459989	7.145731110764461	14	0.6043804716280564	-0.49943155200706	0.5792312049390279
Si	13.857994753634967	-0.6710228270518428	8.461956946960141	14	-0.03680048755781147	0.19559786567239318	-0.4052267672978984
Si	15.157803924816845	0.6784490953052362	9.949637002117658	14	0.7617560285005962	-0.2522246605749305	-0.39090828176999376
Si	10.881428125390372	2.003757237521886	8.404261326411836	14	0.35165136018931287	0.39668478409277047	-0.1872415162713799
Si	12.45597914255344	3.451075758673057	9.656235905164957	14	-1.722536177623215	-0.408606228130701	0.835143858985179
Si	11.09986134511901	-0.615639977714767	11.144699695653449	14	0.46169003990207436	-0.34994003248822225	0.41433927877356724
Si	12.614111531966213	0.6992740626710754	12.543080713249125	14	-0.8178729732181482	-0.8547917316206863	0.4829692788632159
Si	13.731539308644184	2.1541291431883143	11.175676458617707	14	0.24702331451227094	-0.621162847384259	-0.9635242898308126
Si	15.070289597987362	3.1760381319806026	12.689259885556469	14	0.7785641153100002	0.5841731264748846	0.5322504258660902
Si	13.976596134541378	-0.7770326392612877	14.035010318399529	14	-0.47265014766080166	-0.06148027041538087	-0.45273385162987057
Si	15.929291929050057	-0.25444995232661094	15.736698580159002	14	-0.853289177671592	1.0826335720025246	1.8398022343909126
Si	11.171929902941715	2.029446711387641	13.865151978416534	14	-0.4054679369769284	0.2598922108606761	-0.557736507352058
Si	12.56274595285442	3.2028188194308465	15.287105214730113	14	-0.015710996169296852	0.4403408668762248	0.83797824549011
Si	11.311057128347771	5.047770223321661	0.06835876585093732	14	-0.6941020199904758	-0.30604663668371834	0.5361330520100458
Si	12.753270507844103	6.319572136194159	1.480603042094261	14	-1.0864148965968663	0.5582116476152214	0.35222934466528216
Si	14.084076494919811	7.711342371339243	0.19648361722901606	14	-0.01766272221782126	0.46485249944585655	-0.5125498455715196
Si	15.453108379001906	9.142428045997736	1.489431344340588	14	0.29283089822762515	-0.4091325333897354	0.37176100334031903
Si	13.845685597029544	5.020919350617897	3.0482942862644893	14	0.1328027319962886	-1.1020099359162248	-1.331936942712703
Si	15.35439616208107	6.159855565344793	4.189979423420915	14	1.3242156563257663	0.8967519133349711	1.3058520507976725
Si	11.454218334753762	7.836522784224415	2.9097987281401103	14	-1.0604135656047409	-1.1204342195298738	0.012262115492850218
Si	12.740244459006298	9.062766112175163	4.36711530576294	14	0.08055350101183537	0.2778806921225601	0.11655925991518905
Si	11.000861702874232	4.8863692063878155	5.645262299769133	14	0.2803939475730049	0.19189855933776412	0.07598670374218834
Si	12.47965496807416	6.327205618053182	6.9617922720633985	14	0.20356032173835978	-0.9312234936937925	-0.013154546149473617
Si	14.113178308968607	7.522878254863611	5.640605006874847	14	-0.963198016565686	0.4478173840366833	0.1631623436165971
Si	15.287506273321656	8.924203710952192	7.104520669406015	14	-0.3978237837495961	-0.34052567324796806	0.5129010585582517
Si	13.788481273255881	4.8151328451425615	8.420174997108745	14	-0.35002616451644725	0.7112420364967109	-0.9125834943437829
Si	15.057586067100257	5.96414899913689	9.917263218392865	14	0.5870298815961011	0.7221419803909467	0.9277491590746763
Si	11.114992951562412	7.581511349869644	8.397909560968284	14	-0.3832520443476568	0.7486747588527468	0.35686890421548934
Si	12.47417550506721	9.00916463141552	9.80218613985963	14	-0.010595782134862248	-1.0815755621632839	-0.1075243958201887
Si	10.966394059086092	4.830110712459206	11.134654849012778	14	0.3789819526319549	-0.4724568005407265	0.09679388776655069
Si	12.384612437265934	6.122789396098951	12.645654790191022	14	-0.4787598652330695	0.26491589354571343	-1.2711868662082442
Si	13.754971156855047	7.491697620448653	11.184783830800647	14	0.08375349869329166	0.1599034676233094	0.6864987473377339
Si	15.128030337627216	8.761161695947953	12.79161003811809	14	-0.3983729718459797	-0.03441655870497017	-0.09595185077420221
Si	13.707228473686856	4.697631033207962	13.864553732684149	14	0.9508317713073697	-0.4186980736228143	0.977627830953953
Si	15.213390645604619	5.918705718560207	15.308508374898759	14	-0.5399516576315297	-0.3306749974348847	0.10382431815396362
Si	11.042479887134082	7.474179715385574	14.00928073867462	14	-0.2840480024539993	-0.23012266791134156	-0.36942952503600873
Si	12.274887819852326	8.788064372053125	15.446557755340049	14	1.125423449403621	-0.12160993920608794	0.23499876915100243
Si	11.03514887029618	10.45304240406675	0.26874602003763276	14	0.6915969920770555	0.638926871151694	0.20025542295984142
Si	12.545928229249077	11.906821310696685	1.541012492445335	14	-0.47125558013515323	-0.28622367177590863	0.16628957901749322
Si	13.945734675922191	13.456625341684122	0.42853444721798395	14	-0.45494243109987775	-0.5413441682729219	-1.415282149881155
Si	15.421282708685553	14.750936668006938	1.7024653127805873	14	0.7704587057882335	-0.13231396487492844	-0.23254079246494083
Si	13.918275531021255	10.390808137124159	2.7503829512344002	14	0.008980099551681196	0.14660236847058733	0.9269171493930765
Si	15.295651104884895	11.553697576230924	4.288250475891057	14	-0.12697146513019275	1.212409084594871	0.20812326235002654
Si	11.203262605405964	13.26086697207481	2.985177690420504	14	0.050076904099460105	0.07770960141721957	0.27396926959901885
Si	12.614816726656342	14.54004836303169	4.488971945570705	14	-0.1409724191510591	-1.1628980807763754	0.17333415048416695
Si	11.266552993306284	10.38243938118064	5.788147778393437	14	-0.22714069996103384	0.8086612170771218	-0.5919306654468354
Si	12.542818354087158	11.861545137866475	7.16012075881351	14	-0.01213433155843886	-0.8964778335078434	-0.27750505363528644
Si	14.080034158532557	13.033540278078721	5.8733125703074665	14	-0.6057346728001785	0.05730968047556867	-1.3123106673618845
Si	15.384383647186187	14.18856395555886	7.39629747906297	14	0.10922363932627457	0.4099804839243202	0.5775437885174148
Si	13.80979419524143	10.324285885406994	8.405718505961106	14	0.8580356952031173	-0.08572193692639703	0.7324994210626313
Si	15.246970947258973	11.322096266079978	10.149750199600133	14	-0.23465964035927486	0.909408436383932	-0.6797207994927595
Si	11.090237609999457	13.046857094395392	8.51009567548748	14	0.3447559128312077	1.5340870131829616	-0.4539736386152459
Si	12.501683111214625	14.33345974037327	9.972144744490512	14	-0.10036875260368458	-0.28359060281754495	0.04609863283759498
Si	11.125956890808702	10.222498885950996	11.248234642137586	14	-0.666324055222128	0.6938089139839789	-0.4998537275006283
Si	12.350829935238346	11.611089060680643	12.663331447613254	14	0.24342273862193559	0.2537220723133848	0.899564445444681
Si	13.828523631466458	12.937089028967703	11.408133360430611	14	-0.1496421862905984	-0.8573993466363807	-1.00965763259023
Si	15.293162870539868	14.095398044743561	12.719466281809472	14	0.39536606417406656	0.8488424510203958	1.021557222232939
Si	13.715201184271224	10.239293214471834	14.16370500719309	14	-0.09934930934424588	-0.2894820335481323	-0.39950734351322903
Si	15.12659989531738	11.640944530666044	15.485786298825289	14	-0.2417823734276811	-0.8049143452940698	1.2124967592862879
Si	10.841100012933317	12.994821413220231	14.036178401547396	14	1.2828799960937456	0.23419966961750038	-0.8782888060309877
H	14.511249014004015	2.7799209165014984	1.592538494993745	1	-4.443131217516407	-3.1059690174615677	0.7050356453644054
H	15.548149238732666	2.7308096208896666	-0.2660973622559881	1	0.5891870389597054	0.24061894827031408	-0.21522131280735934
H	16.31061342465618	-0.620415917109051	14.425225288273102	1	0.9371486059040737	-0.86530472416424	-2.37367297082976
H	14.50436584592667	13.80170618031199	2.546125481639321	1	-0.4879610798422834	-0.44164930237364813	0.3988501689933992
