68
config_type=vacancy dft_energy=-6809.502347821635 dft_virial="-14.394559163915662 2.0709883367962005 -14.335048004812323 2.0709883367962005 -1.2140276457081178 4.603783268234313 -14.335048004812323 4.603783268234313 -8.042338041225246" pbc="T T T" Lattice="10.91382384479301 -0.055203335480343604 -0.046057349886724004 -0.05555258552687801 10.883591887639875 -0.057025984160695 -0.0461228342704492 -0.056600335666481205 10.914184008903497" Properties=species:S:1:pos:R:3:Z:I:1:dft_force:R:3
Si	7.168807955959869	9.377146559575953	9.919605006072368	14	-1.2293521544335828	0.7530232692807132	0.2761061152305939
Si	1.381724862227302	0.9658368154077428	1.3079807149015632	14	3.0102639927980994	2.9355142478254344	3.8007240982033603
Si	2.9457167753025346	2.6307936427168843	0.28637084987506756	14	0.3116647589187739	-0.4318955572311343	-0.10339982866560717
Si	4.152243625905041	4.079397706042733	1.7786235291729484	14	0.11425760643259249	0.31462512958439237	0.03994777758020473
Si	2.7723381381389043	-0.015196742649828081	3.1166724902683325	14	-0.14745648965794053	1.010305294020375	0.8638744182746415
Si	4.346670035404346	1.3101220542493774	4.461419412412409	14	-1.0325556394609365	0.2608188372180575	0.5886838736485523
Si	0.2528854102571865	2.6881754253624863	3.041925340465203	14	-0.226969464346712	-0.8751469153297669	-0.4294720333563628
Si	1.5314756423364848	4.055370394247562	4.462313274250258	14	-0.26558540937108	-0.030320016598378234	0.7607784942578759
Si	0.11558539430695511	-0.14749920871543135	5.9213326288076	14	0.14613108486540421	0.9335773406143879	0.2954549683173683
Si	1.506451876502295	1.2472843310330708	7.303293234816313	14	0.14493526378100333	0.5389499549988	-0.18450431754755023
Si	2.8439464031488058	2.7260297647812335	5.936852427750473	14	0.013431968413517594	-1.190460072697831	-1.0585250887470923
Si	4.269376634480702	4.134026961759085	7.094736386715504	14	0.7605725487217321	-0.23129894859530933	0.5951646017185177
Si	2.959113788806315	-0.09258509592987403	8.629380381817894	14	0.8134535002833455	1.1742045164217265	-0.6433445443127724
Si	4.480544126679354	1.272857074284157	9.865428684010116	14	-0.8582794359874674	0.9788797021343333	-0.13640510766034805
Si	0.25236371800017576	2.722193471301332	8.754617082879548	14	0.38617461976506917	-0.24597610331537462	-0.1870160303348029
Si	1.7420297641409113	4.203092249867659	9.952988944895477	14	-1.254777814944527	-1.4374047113873052	0.6381002607912665
Si	0.291358577102137	5.496722062075844	0.4276392194790461	14	-0.34087148691352803	-1.10849323509151	-0.1351005288209049
Si	1.4266788002482564	6.918847514842408	1.7509203606380026	14	1.3234803202042038	0.6106501119512375	0.321875903697742
Si	2.9014384178403456	8.276498134799535	0.28196702506954785	14	-0.1949543180107601	-0.48875375161248497	0.5420663917573515
Si	4.177424554260171	9.647484649502301	1.7353492655945453	14	0.2334964723124399	-0.9973484658700209	-0.11443115604170251
Si	2.7141749085141815	5.483469114216259	3.14404168844628	14	1.118842191115638	0.4449688564524913	-0.4185695183568069
Si	4.167743779532796	6.768481181526209	4.572533314717329	14	0.8392023487330327	-0.12770602992015906	-1.831977332459574
Si	0.20480786713254012	8.308199124960906	3.1972193736567243	14	0.5298019622697131	-0.9804100240208853	0.4475520459676441
Si	1.6094096988142408	9.504050929609807	4.655888386761136	14	0.3751337792992893	-0.2589321601341328	-0.3822171744562972
Si	0.3194906683504829	5.661987184095922	5.8368926988067455	14	-0.014164219208695768	-1.0286519302533557	0.35269291495450483
Si	1.6712848015897865	6.855347307944082	7.403451599724006	14	-0.06531353133718965	0.5182875242039621	-1.5677363540603995
Si	3.1332182112229	8.183807172449306	5.9808164601707805	14	-1.3973234934409848	0.15023431184582853	0.4345754203063247
Si	4.454362378659623	9.551499822650694	7.299797460131782	14	-0.5418555611210993	0.17484313219656183	-0.18179771497703037
Si	2.9928284237672345	5.434180109992697	8.569468719147707	14	1.1548780319512375	0.52769725545464	0.017069311109931082
Si	4.396765588954124	6.806470855337988	9.915238289084293	14	-0.7324217736819627	-0.134060002497841	0.4705968629521313
Si	0.31960635742839744	8.32384225282646	8.570462990373935	14	0.06259407324006902	-0.862945735033004	1.0873669768969174
Si	1.4194427758466217	9.832372167105635	10.01135190189056	14	0.18175452040765186	-0.772465967711673	0.688898874154092
Si	5.6424182674260415	-0.07305546989022856	0.38851448301603	14	1.6657867409969065	0.2750079961483587	0.16303198857686557
Si	7.050482040194014	1.4083235274900827	1.8208271230774444	14	-0.7275796110325278	-0.42846493140246084	-0.6816329305193537
Si	8.526706325168757	2.586364671172127	0.4164282929852919	14	-0.9275570975072613	-0.9959356434965994	-1.1911887239455607
Si	9.693392476712852	3.992496654620206	1.6100929192177735	14	1.954386885420228	0.8502573302780733	0.9775177876462507
Si	8.294989833357137	-0.06551166888508551	3.1193191507772258	14	0.604893664249958	0.369122020839719	0.5692445176545088
Si	9.829738603473487	1.2842120664221066	4.411718947977773	14	-0.7630523798030149	-0.053501616385897344	0.596038006195772
Si	5.56661136201296	2.7567583118442838	3.103984890921575	14	0.7377424190314772	-0.2236758784316023	0.3007208491235636
Si	7.100512109360067	3.8857167271115	4.5901879045696425	14	-0.9551023772441357	0.702768444693099	-1.369319014293932
Si	5.732033646553979	0.07009557574584951	5.974021363952897	14	-0.20535623880448323	0.21735892977053048	-0.41293596948983047
Si	7.0684858800928625	1.4202362282960919	7.32777893729756	14	0.2562301855531892	-0.5715585124426421	0.19953731324392407
Si	8.398327465094688	2.6747958743610325	5.967973881115874	14	2.001022107938138	-0.37213535627493255	-0.2784573910458693
Si	9.962035612507112	4.090528959869622	7.179404420653001	14	-0.8767196604541014	0.013634571512745264	0.28093747923768414
Si	8.451669952670843	0.012457312597323883	8.700714703822545	14	0.5543066528549805	0.19550376321767576	0.2656908246892061
Si	10.086943800243745	1.0701981863441987	10.234184345643461	14	-3.045183716814223	2.2440257563928894	-2.866228358768616
Si	5.761819218491385	2.8707109621836904	8.559073073231334	14	-0.8082189869620563	-0.32702428499080644	0.129789139450543
Si	7.201712767375387	4.075248178927346	9.953963570806586	14	-0.5425662146315883	0.05903077837687579	0.5735092100490384
Si	5.661022380842371	5.457749031101791	0.4767557814921324	14	0.8358727673434407	-0.11111880105775572	-0.18026456487462605
Si	7.26961025064086	6.785337953303471	1.7806371739724982	14	-1.8922301571951163	-0.08194215499524735	0.4000020241768255
Si	8.548848778119037	8.150771392266337	0.36611445815642985	14	0.5381405710440175	-0.31188124598673034	0.09798585219297135
Si	9.857214759478184	9.55810828837496	1.7858486395106288	14	-1.094549873829815	0.7576582008413442	-0.2521323578939372
Si	8.428593255846081	5.1810262137622365	3.112472758458756	14	0.10550222148589225	1.2666434659970105	0.49921763604442376
Si	9.78271208470763	6.760988676621651	4.38721796580699	14	-0.6066882957634213	0.04071833784465311	0.362107017084227
Si	5.527417866947031	8.252111750300271	3.12212297380706	14	0.3351898583770647	-1.1673844024495017	-0.2851764605790123
Si	6.865286745987172	9.532363102913399	4.522199834573349	14	0.9810689983144393	-0.2022233469718828	0.15323916263348558
Si	5.684174384708416	5.393226176410956	5.666009016663045	14	0.06752596746517707	0.05759455894504107	0.9574356553221701
Si	7.061124343955755	6.67251818280251	7.139088959812583	14	-0.441109113145885	-0.024737889837804745	0.36963032836151233
Si	8.341186883262473	8.098896846292025	5.857422053104596	14	0.3695601371862723	0.24112648446051135	-0.6343616165452391
Si	9.701644600468622	9.393130206236878	7.371900132238809	14	-1.0848701765205215	0.7642296889291107	-1.6680878802584391
Si	8.514587348554013	5.471791065785265	8.591257556425873	14	0.7130220127098493	0.06473786085600848	-0.09001259748466015
Si	10.035616048873537	6.864439814624326	9.986624998595925	14	-1.3803685965178003	-0.20611137243701066	-1.0431784182016604
Si	5.73116816128241	8.104566702516232	8.543922169650111	14	0.8302063083283665	-0.3205967788009683	0.04066125930654582
H	8.973081718237978	8.59519971632613	2.6369862826044974	1	-0.21079695477244853	-0.08918547290316851	0.19607454859874862
H	11.015611679449064	0.11787843914373254	11.135522317301067	1	-40.9563360652706	13.227088343418401	-21.86976168931507
H	2.278678654394507	8.933124238695257	9.145959399866111	1	0.900310065987524	-0.7587408932916586	-0.7938465082224284
H	0.49178663036985665	0.11288962051026771	0.45606162482857376	1	39.791036829235736	-15.183350078838082	22.17459142185076
H	12.544736432409813	1.2842120664221066	4.411718947977773	1	0.05829287114999329	-0.041248756872199664	-0.5374101200225634
