219
config_type=vacancy dft_energy=-23068.3608011984 dft_virial="99.03103726891506 68.37089750143251 -38.757464676715294 68.3708975014325 120.6183212565076 33.41507244084096 -38.757464676715294 33.41507244084096 -0.6070900268039017" pbc="T T T" Lattice="16.779126163165113 0.18451452667629084 -0.0060911943600849006 0.3662099881941952 16.925516189604178 0.0383594223337578 -0.32944468008690597 0.1314724733092705 16.060902193467168" Properties=species:S:1:pos:R:3:Z:I:1:dft_force:R:3
Si	12.467340833188484	15.815917041128513	14.712826912741765	14	0.25969860663006894	0.437011542597165	0.42448408903527557
Si	1.5016958736927326	1.4405573980702278	1.2698814608946585	14	-0.651481064208913	0.8840797065435572	0.3933834848617003
Si	2.7576481322780073	2.9042210623493725	-0.08294092419566844	14	1.368521714534154	0.022173212280957037	0.7167927957723785
Si	4.069122550363692	4.304989369326947	1.4489827112608573	14	0.8278863999979968	-0.10290309111775456	-0.9179113387881938
Si	2.8706607628447722	-0.0282242118833686	2.54853558407982	14	-0.21993774840663896	-0.05080349846293395	0.45372912649929986
Si	4.237086815339289	1.4077085769151252	3.9423183147155108	14	-0.9190539379924676	-0.07506187715853108	0.4263630528032398
Si	-0.11715397152563292	2.7848269408318074	2.588423678056012	14	1.2283915894859754	0.4836171974038932	-0.2213564843222967
Si	1.2896736475274964	4.233804618047738	3.995518101490203	14	-0.03678171848897439	0.22524219579263652	-0.31924720561842257
Si	0.04357469287677264	0.06534022512048097	5.3129394046481035	14	0.47805512526481697	-0.8061657022533859	0.31863579677329135
Si	1.2963437570540357	1.44506286827872	6.847584780394452	14	0.3951189809528003	0.566192358528961	-1.9174784114389705
Si	2.80144432313151	2.9055718644044326	5.228471486824975	14	-0.3419210121052124	-0.3962646654834583	1.0024037731504958
Si	4.103716507093033	4.42368040256989	6.664848949591905	14	-0.4672960779421252	-0.4795121706497448	-0.06936842153759518
Si	2.628833634689501	0.09229082363765001	8.097318315481523	14	-0.02456973954986706	-0.8482456974755893	1.0448768903761503
Si	4.157527091318709	1.45804734815705	9.288484093888144	14	-0.43791631455932517	0.09954317068538504	-0.18486170118705084
Si	-0.12162420341964565	2.7497362916697976	8.116491314588503	14	0.17128857909145712	0.9889538069997373	0.0968789913526476
Si	1.269826086400476	4.323699236300761	9.353458511744023	14	0.10447609335262113	-0.31894304385904904	-0.021157625679498544
Si	-0.3500943323720863	0.0537518537015426	10.851088555151774	14	1.5963306447678942	-0.5235716598579303	0.7407542118034987
Si	1.3800800603479633	1.3749168082691805	11.967393051468457	14	-1.7173543719609885	1.0458819354457962	-0.2853135004925762
Si	2.7139123499636124	2.850403766063796	10.570512705188492	14	0.26982104827549197	0.5364287291218628	0.450239879469327
Si	4.163324633058129	4.363620890576458	11.884682015324394	14	-0.7666269875296168	-1.0236454739739633	1.1320800410774845
Si	2.4923925590385743	0.04824628656781296	13.349241739600313	14	1.4868097856666107	-0.5417041230177427	1.2028407161459398
Si	3.9782613954849375	1.636108229238606	14.684701703741935	14	-1.1346889416458388	-0.5699618560388301	-0.3041895273109753
Si	-0.0875470753026748	2.61179339261604	13.60570115833959	14	1.950108823278034	3.9988640157057844	-3.7806725620325907
Si	1.1762784295463788	4.466810421478226	14.701077451885205	14	-0.3861910748391181	0.015666001826194258	-0.803580712964509
Si	0.0784522341369282	5.809388525144775	-0.09283114445967407	14	0.8196912589005569	-0.4680010750209098	0.08610657428229118
Si	1.5909713044198943	7.135535506173871	1.28076170999405	14	-0.9236467034258482	-0.3725606170948851	0.3810018129714632
Si	2.8836771250076314	8.489737219573836	-0.07564994912829409	14	1.244928424684104	-0.07301553443422522	-0.34158753974518924
Si	4.2797688042492394	9.950058278022322	1.263828860879004	14	0.6844655172505608	0.06308489724568528	0.28317948307685326
Si	2.7401128757868536	5.684482124433579	2.7516559408014607	14	0.2706268326828264	0.2749000097249125	0.2979340280670551
Si	4.21958176311769	7.123811215541939	4.1199949303677394	14	-0.005331443991859057	0.11210713394282065	-0.9344358326807854
Si	0.1785391153494968	8.435903143138507	2.7186762344782904	14	-1.5184989158479676	-0.3674752278821642	-0.7201316331411229
Si	1.2852940284421461	9.991706609707531	3.9612530356960063	14	1.650442898667327	0.12911602407772824	0.5566692415336645
Si	0.13454659674389186	5.836808967855007	5.336567533514316	14	-1.1625193569627175	-0.858567656893856	-0.1647392025094439
Si	1.339208649596286	7.305546949419248	6.738116117455372	14	0.4741254478935026	-0.9347255962503661	-0.011353229762177872
Si	2.7737839242798183	8.586298591323446	5.35972078414254	14	-0.033084469038601454	0.3738032322961127	-0.28130077641942114
Si	4.325321876781808	9.836374441465464	6.626836876358019	14	-0.18997485833722932	1.613994652538376	0.09711913258954943
Si	2.700209679675884	5.828202429047053	8.089458493337546	14	-0.014521859958728366	-0.3401009266490796	-0.41046153772971994
Si	4.103553739640436	7.254637653085745	9.414289910626062	14	0.3855153883609832	-0.8098493248455622	-0.38361534152939375
Si	-0.16823274737163413	8.335383334062328	8.167935897699103	14	0.3375393344186161	1.6357999396480194	-0.8787336072513735
Si	1.3502567001932004	9.906785627841092	9.189717810461081	14	-0.4606096614465481	0.6402031678326155	0.7127062809765352
Si	-0.13439389738114593	5.6490340580818454	10.743341535577281	14	-0.05095005146618239	-0.11388839570861924	0.8798127001542394
Si	1.1993796617103702	7.266603577874109	11.983273785194035	14	0.9084656120630338	-0.26921015365142476	-0.783732808335094
Si	2.755431474495728	8.702519586522852	10.568390016244825	14	-0.49164727353977977	-0.23457093722572978	1.709687850117371
Si	4.082308392039049	10.052425581586228	12.132746325142596	14	0.5562560649087167	-0.631599478099804	-0.32532349882152856
Si	2.642494354602848	5.760523051051101	13.146354626960228	14	-0.27561889077242585	-0.5079084862475882	0.35987632610846654
Si	4.012184146224188	7.052795943775229	14.552111672459162	14	-0.7590124020134662	1.9164319715736702	-0.010791700360257533
Si	-0.040574402101061405	8.654575342650581	13.389071103052371	14	-0.4922928780856689	0.006169881436759345	0.30197220608287967
Si	1.2204102233949277	10.140996246023795	14.829697299736583	14	-0.4145817340052572	-0.29035389536219447	-0.4506301732569254
Si	0.04196379850055185	11.298771204438312	0.1282775327964326	14	1.0236974103014302	0.5298253593281265	0.09496017545222109
Si	1.6506331268641972	12.748510700452998	1.48894463789596	14	-1.1577633263415077	0.5692653436076021	-1.8265654128711946
Si	3.133449654070617	14.157286494892368	0.07948924739162035	14	-0.9552610144423888	-0.758976149428452	0.5807653834835603
Si	4.538990235637745	15.423075277262441	1.3113334648277655	14	0.9374406834684424	1.1660646540886699	0.1952443386908728
Si	2.923649119732585	11.40582016978311	2.7114540580249007	14	0.623421563408009	-1.585336084197877	0.5724458008886251
Si	4.415807156306111	12.714988995292828	4.014350463557209	14	0.7990221432318865	-0.032330878069266045	0.04209799295944457
Si	0.2786478107567434	14.178387533205886	2.728407043319649	14	-0.7161901286853359	0.6043527036905988	-0.004802824738036611
Si	1.8678169270932405	15.476578784747652	3.9735193251649377	14	-0.9568301600192753	0.7831195997162386	0.30585380378470717
Si	-0.03648843563637635	11.321231434881764	5.367401058684167	14	-0.1031350048176319	0.01744777781305688	0.0017200694591790648
Si	1.5489571654700856	12.562126865094301	6.593014806517284	14	0.12904891822887238	1.05307074592093	0.5958161198066431
Si	3.0674701052445736	14.055471258255313	5.410014248980134	14	-0.32546876627211685	-0.12527684961368313	0.18344527926618123
Si	4.282602971542403	15.473783211798917	6.9085286062798295	14	0.015617922156707492	0.5703794035428221	-1.1662027224443619
Si	2.913002114714751	11.339231501521057	8.077709032480985	14	0.03508787430406083	-0.8503295783375696	-1.1121246642456872
Si	4.302573027762615	12.700484233846941	9.414457712123586	14	-1.354702023438358	0.2002986175292199	0.3998814393373106
Si	0.2553922012150308	14.073422662460324	8.016860853449195	14	0.0499918005133632	0.23986330041672257	0.692421288442695
Si	1.602167020334629	15.645818341104423	9.691056666595573	14	-0.36470871855768483	-0.7419783150464212	-1.53013728119015
Si	-0.03635922848328364	11.341350834434772	10.679915925543536	14	0.27081092382374894	-0.27026919193279375	0.026981436340165955
Si	1.258232680936612	12.854635079546444	12.049555376715618	14	-0.3151069547213881	-0.21646109979273476	0.7997939890489949
Si	2.8759632901664993	14.003647443760311	10.869201048794407	14	0.2123568443701824	0.9236019661932775	-0.78039911317699
Si	4.258751666684484	15.582651145376865	12.018587610347751	14	-0.8420961277708592	1.0634266439294222	-0.5896776058547896
Si	2.607289600422523	11.444510161066987	13.381348878136363	14	0.4240858248211846	0.3202234543084828	0.7275595564110308
Si	4.055406455956161	12.924541183414526	14.77524906982032	14	0.36380523214818483	-0.5424548857712259	-1.577070494814665
Si	0.07163781532251917	14.35471166878808	13.67339899450027	14	-0.7259186769957122	-0.49519719865530815	-1.2358567937830254
Si	1.473318962446618	15.737570521935023	14.939672723198182	14	-0.4600543026973961	0.8967652830826358	-0.987140406417437
Si	5.547851433090452	-0.00866191330213726	-0.09116319757429545	14	0.44929037027459623	-0.5730806067921698	0.06212124697169378
Si	6.877143014183128	1.508986848760107	1.2168645777522669	14	-0.38436867538819713	0.5432298169147185	-0.9728684578958269
Si	8.488342789129419	2.843913204139606	-0.013140535271026132	14	-0.5854522513716583	0.650992554198085	0.23731559215498782
Si	9.897434050384135	4.260780386789536	1.3838421699224288	14	0.2973305896484163	-0.26288754855864865	-0.2455027628259354
Si	8.097078359340065	0.2864740726012161	2.5955502076558137	14	1.6350054681040938	-1.6189915957280834	1.3978392571682066
Si	9.855837737163158	1.4836605687389606	3.9223734287199274	14	-1.022669739504967	0.19607326304608855	-0.06972683361922381
Si	5.540261771357486	2.8129320136519347	2.6271019232350636	14	-0.11550613517605642	0.6999237737668871	-0.4308203209862485
Si	6.971314892608011	4.156518604318595	3.919517447232086	14	0.012216864039215613	1.477719642807227	0.0869977193862545
Si	5.377096629211047	-0.06604331339510235	5.40025323586922	14	-0.10979982402851976	0.4286652205069003	0.8394355479855701
Si	6.873921225430687	1.4155751111190034	6.681858987395811	14	-0.5111323952085219	0.02593602491699375	-0.6482617832375557
Si	8.238472935197871	2.7919434023417575	5.275714320437601	14	1.4729751821599577	-0.1362374715934744	0.5045773621948043
Si	9.727476303617964	4.189070416823082	6.74791404689574	14	-0.2881142055178135	0.4262794918803349	-0.20427071813831668
Si	8.125468694705983	0.1346321755076286	8.165868583249619	14	0.8514459522675777	-0.1032075099876601	-0.3193436220679281
Si	9.590617402238205	1.58141836516591	9.47771384264483	14	0.6146900897407861	-0.3379267999903624	-0.29898535303246365
Si	5.433660836011075	2.871538364676818	7.852987588983209	14	0.08310326615782622	0.31957990664684977	0.9083468269972429
Si	6.651493628404049	4.2977235644842	9.394658813430846	14	1.387846399230919	0.3583197789476489	-1.1034322713793305
Si	5.3812161559752365	0.044140183923425155	10.706723892787812	14	0.6218976692847572	0.40460713091574274	0.2227091428312266
Si	6.897403366994055	1.6114984616118828	12.029343686338974	14	-0.17560443648185767	-0.14222866121048344	-0.6073269583249461
Si	8.363193076246816	3.158621556714042	10.648072235358597	14	-1.590387534820372	-0.43018088709312763	0.4360054690853911
Si	9.529104729276225	4.671093642577702	12.002966968943333	14	-0.579631526037375	-0.8130482940848903	0.9946732307844067
Si	8.235583393410526	0.12113254503190325	13.250576137071764	14	-1.0085075771805274	-0.029222925958271053	0.881487775270316
Si	9.441062639555858	1.7769910105289666	14.48278951780246	14	0.27691884162229274	-0.8922784471884454	0.8709177041886552
Si	5.512717155539085	2.9104330737876736	13.461623436536392	14	-0.2726880878179891	1.1844501140119847	-0.42821476285481036
Si	6.607239339462308	4.500221377650031	15.010860830507342	14	1.014854607773845	-0.3596796365514752	-1.5108532199574434
Si	5.536833586763091	5.8745089303035	0.05427203834386389	14	0.3252188548349985	-1.6454402990459147	1.3689660015334757
Si	7.1495939156363475	7.090943936222108	1.2993994223239296	14	-0.08960199196503249	1.0103981109224323	0.29946743527999137
Si	8.650454137871414	8.684905463327862	0.11594244471351686	14	-0.45573201754369524	-1.3018318705190892	-0.5282235607136743
Si	10.071088464140736	9.953083739022663	1.408911713652365	14	0.3479674804866047	0.7342372311485194	0.19207005206261799
Si	8.53028309542032	5.7101893138541024	2.635520524365792	14	-0.045645089859120865	-0.15804018759779812	0.9201515428536389
Si	10.173237625757864	7.12969601406007	4.046471026213062	14	-1.133634531354046	-0.45273796539838274	-0.8177703861158744
Si	5.7596756534886095	8.568959662584394	2.664746511189373	14	-0.20797748067837415	-0.20569048249610242	0.3130683253130427
Si	7.340208026747598	9.849056878648256	4.089426531563975	14	-0.42610080006058465	0.8717278594750338	-1.011313167305873
Si	5.600948860951654	5.658884005986446	5.361875355370735	14	0.7738661916690257	0.42594961906775997	-0.2604915355108026
Si	7.093875428383835	7.2271836500760065	6.623571459216222	14	-1.1717385693091724	-0.24698269104821258	-0.22171772461977748
Si	8.676038832198747	8.451354305030426	5.3503306123411525	14	-0.04360234668226321	-0.14424595044467164	0.11718121029213288
Si	9.927391651736915	9.881660709616972	6.722607903054296	14	-0.1830624416840112	1.1239761742189098	-0.38140959027523874
Si	8.215073016368288	5.769731997235164	7.941647188214461	14	1.1213878424931167	-1.03258417872999	1.3413505306213611
Si	9.767538911151581	7.196470941984372	9.457685055900484	14	-0.27620381723275955	-0.3969208115611601	-1.2755338339730187
Si	5.557602378111513	8.531482876127608	8.061044665761976	14	0.9211283057647631	-0.43485464234409277	-0.47839116873016024
Si	7.041687484639207	9.875497360612954	9.331003315345496	14	-0.2526638053636118	1.0330328366083559	0.06150675280017839
Si	5.49472883500462	5.8422692285844064	10.734177895797549	14	-0.4142449192083178	-0.2840143209743054	-0.843132026104347
Si	6.880549384582845	7.1278837578868215	12.009182336411586	14	0.1604783667728945	1.45287042410906	-0.25481967717455595
Si	8.384280690440532	8.526316268018874	10.702560737634267	14	-0.45838642667621615	0.37047287957492486	0.6524948510366475
Si	9.773224025887659	9.948390331136945	12.083149236519724	14	0.18904591798505982	0.8748460960073093	-0.7451978531283106
Si	8.097902264692904	5.960923345497895	13.475990600754312	14	0.9408288860593337	-1.046749940601878	1.3795782387423867
Si	9.7144398052754	7.312623138569793	14.850628858537602	14	-1.0290473662515944	0.9138592768036404	-1.1127365873118824
Si	5.6137319790329565	8.502092443836455	13.441426848294523	14	-1.1661381877008261	0.5711360798385418	-0.6620012558473629
Si	7.003807974588365	9.995606316509965	14.641080026445856	14	-0.4375620162462087	0.9742257443943331	0.4679069725661924
Si	5.826603280775658	11.389474625909395	-0.07886838185078524	14	0.472187862924239	-0.6763655070499662	0.5805000454145209
Si	7.364826184449198	12.72404356409917	1.3471070660846935	14	-0.009734718963144656	-0.0051946611888271784	0.06355875195618857
Si	8.813584041703374	14.166787415682121	-0.11564375804792591	14	-1.2910530256854322	-0.4439309012347476	0.8292704259918325
Si	9.817755187300314	15.74855480796288	1.2419609697218066	14	1.0827127620463854	0.3038982210782026	1.086667893360369
Si	8.881716483742638	11.384663756975408	2.8334037963497405	14	-1.5341512908159651	0.06069711173486376	-0.5130720370620416
Si	10.07632219284848	13.032704350702877	4.015367340632198	14	-0.2837194151940844	0.03968218240063344	0.8204312230116956
Si	5.910891650996437	14.171539554091972	2.7284557057539307	14	0.22132614527951897	-0.7014929193437733	-0.1571220458879732
Si	7.172020585780296	15.66378484744421	4.096935648578129	14	0.8098056160551196	-0.5477079110508204	-0.21199714673589365
Si	5.922493446535177	11.337920971825403	5.312144025549844	14	-1.2654764412921953	-0.9326810532997845	-0.137619697813586
Si	7.097713048632186	12.751677114711258	6.681296852379109	14	-0.38653148918350577	0.10866031015063013	1.2470860962687722
Si	8.510532859161863	14.175018079135624	5.572167548096509	14	0.2385435520558906	0.5847559960509621	-1.9657863950781687
Si	9.849662642054312	15.595722882033906	6.810685231089144	14	0.5247227437097607	0.6709548730142467	0.4917102656201233
Si	8.531167409312266	11.345631450636583	7.953163404989465	14	-0.6678554055508081	-0.2267527201682235	0.6791656978541395
Si	9.807782744302521	12.841333454837796	9.350263571231187	14	0.3078782921137918	-0.09186045087825058	-0.625956159032611
Si	5.5874190262063745	14.08885704420249	8.177826117963109	14	2.1201691853580558	0.5188562527007787	-0.5080293281976352
Si	7.200766660320961	15.560128828379327	9.45488277089185	14	-1.1486109627333765	-0.2021896654921888	0.03934871004061023
Si	5.562574336483119	11.33817938613159	10.691725794939206	14	1.4181702724872776	-0.9041361278144364	0.9537607744880824
Si	7.136315783137351	12.709032042130762	12.067839027885725	14	-1.6755654258610255	1.3170307025086123	-1.3027731521767953
Si	8.573653070470112	14.190823302187317	10.747974534923891	14	-0.3735723470383634	0.319878926195583	0.7773914341734807
Si	10.033406959856972	15.688012027656582	12.090435177542172	14	-1.3219746809287252	0.10239735470128143	-1.2418161016940645
Si	8.46638764119351	11.478652731767992	13.351097624162916	14	0.727775015036859	-1.0212296634151523	1.5250724608199901
Si	9.909613083074355	12.878632371707209	14.852132359955409	14	-0.25186959093021805	-0.2924889412200455	-1.3638448739568048
Si	5.481554739434089	14.190016176984232	13.184920445135939	14	1.888287881407733	-1.2609438397233061	2.0670534918807126
Si	6.997189883526057	15.54087864058349	14.634101162163875	14	-0.1536245713209758	0.9588083684525973	-0.6521171556651177
Si	11.006358636839757	0.17073802372965252	-0.02329755991609332	14	0.5762788046999019	0.6506945630914798	-0.35915384551350493
Si	12.666251050337273	1.652252411315294	1.3141995144054581	14	0.4826766870777831	-1.8155471981322318	-1.4875327804826362
Si	14.132091100039291	2.7681021655736897	-0.304960763583325	14	0.08689024718387232	-0.11868170735697131	-0.10874129996821479
Si	15.528946276094628	4.376873852850824	1.0015937145949851	14	-0.3457923253857594	-0.3929176005776895	0.7504416224287526
Si	14.005080468549156	0.30397912482281547	2.7162263326144545	14	-0.8224852790519618	-0.3455578405805619	0.5105893777649066
Si	15.421135491951077	1.6129197402959028	4.041379928778214	14	0.09652263615527508	-0.16993257814561102	-0.37352581003206864
Si	11.436257683418807	2.8713185447150624	2.664795173623655	14	-1.8961235819814164	1.2959450677780782	1.1115901314496281
Si	12.74320146107137	4.32023077934696	4.03394464442297	14	0.5679641072050751	-0.30098464452941076	-0.5308322041714965
Si	10.939446111687484	0.06761896945684331	5.453134199798619	14	0.4943176235252856	0.9437427197186574	0.5424008925595027
Si	12.526366687957173	1.6653409281220881	6.774621333241501	14	-0.04478376957687125	-0.5513627372634109	-0.25214367075734584
Si	14.162565530004443	2.955209225386711	5.413643795371557	14	-1.174208630190239	0.7212289808917621	0.40083891895853374
Si	15.494860757902782	4.485422963583478	6.696739624196151	14	0.0941147960229564	-0.02983356347180622	-0.08712370354694177
Si	13.93958083200603	0.21130906980076344	8.059153542884893	14	-0.8426872248839613	-0.7337332945057703	-0.24082155136954178
Si	15.289751953435491	1.5171101192551955	9.439012105256126	14	-1.046036201765005	1.6032065517255663	-0.6539025311994285
Si	11.177801426859006	2.960548669037893	8.279889700816499	14	-0.42793014149587	0.21201745846792283	-1.0649806199849199
Si	12.52192498231774	4.625285511768898	9.354404912190054	14	0.019775399459386934	-0.3934045679253256	0.5335424062894646
Si	11.023761330147869	0.13025759046720398	10.733560386286664	14	0.09771948568180401	1.1157537794050763	0.5722568246475943
Si	12.439631771902512	1.6570381100246498	12.183163963088356	14	-0.44227973739814846	0.6880704640199403	-1.403179700028686
Si	13.87527762014024	3.1000353418688618	10.614949897762532	14	-0.1436687373002984	-0.58079340853155	1.0672298229189856
Si	15.253233313529563	4.301393383235029	12.213478981630862	14	0.952467251401516	-0.5432298169147185	-1.207150402883572
Si	13.780258344152864	0.6120542842001673	13.843811483324727	14	-0.19615862374271745	-0.7355230409191253	-0.05006070613594318
Si	16.46764631140302	0.7663007767532595	15.822558624400472	14	0.43938801524457793	-4.2817655622975295	3.437675542350896
Si	10.861609709046466	3.1787157860424213	13.245911255440625	14	0.1906163491146063	-0.6666158756759647	-0.21056324129884707
Si	12.230442035015463	4.386391553790329	14.666027075082601	14	0.8284296745521442	0.6716465003453664	0.05838748782577474
Si	11.254815602162163	5.702733893319155	-0.0009665366257324801	14	0.8879121961337699	-0.23714898453024222	0.708918528618893
Si	12.826326966914314	7.243945341663579	1.2025628561183814	14	-0.31324727424332505	-0.7474825373157943	-0.16957545161664245
Si	14.250065620887812	8.61980855037879	-0.15807236669661648	14	-0.15906040218883286	0.49308580696640253	0.8427376185482363
Si	15.453074828989603	10.113654670017397	1.4526256817720817	14	0.0813615994139579	-0.6719807440369857	-0.31362702649911084
Si	14.097010518967132	5.63992075875137	2.4617066991865433	14	-0.44195320702248964	0.08410702567481201	0.10725571531423324
Si	15.256295690859357	7.12192177067983	3.8317774002072595	14	1.7394008287496623	0.6430288125794583	0.8071992865920854
Si	11.489989400940647	8.583759754665923	2.625699102715771	14	-0.11395987243651935	-0.30262115306568504	0.45883919832309417
Si	12.632014510797656	10.102866711741642	4.040203640280578	14	0.22645575750374639	0.27251093866143083	0.34427434480474395
Si	11.308408044441057	5.564663465127281	5.379152197555703	14	-0.5461408223581902	0.3028011304380954	0.6577751300326355
Si	12.545506126764648	7.143402040377748	6.705728750418458	14	0.2716953840538799	0.7618524449501017	-0.03287595239713744
Si	14.009141264789212	8.558421728539951	5.291009426936823	14	-0.5256701960202351	0.29992020692686944	0.12911422430400415
Si	15.354511585374544	10.0509304702433	6.663118916152442	14	0.13309943755023365	-0.7050420731277058	0.43868841748696563
Si	14.089206071317337	5.9197196877811225	7.980664392418509	14	-1.0611836116481252	-0.8070722739892702	-0.08857226428431318
Si	15.214578560560163	7.22502236678791	9.48062687664183	14	0.05217518315123295	0.42241460636308836	0.7436420772990889
Si	11.207975492143593	8.667494379944875	8.18750323032526	14	0.2701570917408353	-1.175165595590398	-0.39894092901120043
Si	12.492198947031541	10.164882789196193	9.431081806483189	14	1.0968823805762533	-0.6892835115099863	0.14381760429833496
Si	11.044427762582801	5.883847083640655	10.877982101159786	14	1.2987534861192758	0.5437031574041578	-1.0594391166884047
Si	12.482750044706021	7.201105619345957	12.24957643977801	14	0.12887485439869834	0.8805552353706982	-1.058991487252167
Si	13.878591699716319	8.737749510927806	10.846660273632143	14	-0.5390080619790354	-0.5566304178433303	-0.3301137251434964
Si	15.295517612890382	10.160469609811338	12.068159528745994	14	0.4110829738855998	0.36993834677886606	-0.060232513003513
Si	13.848085387466638	5.692288250098349	13.335767279349216	14	-0.4440807966749121	0.5242540312098976	1.2162279473268869
Si	15.197885667586576	7.346332781407188	14.505785035023012	14	0.10422412503124663	0.17075841717444257	0.06080381260564992
Si	11.20967196528355	8.769230749878096	13.480673940550178	14	-0.12395787258444718	-0.22630097696347348	0.9832912046426431
Si	12.586466472310013	10.377186921877268	14.817073593077929	14	-0.14678491694831788	-0.7145461639436332	-0.5573618973069124
Si	11.536054268040662	11.475795072265175	0.24862644483490343	14	-0.05239218444025345	-0.0869213575582461	-0.36182985193071504
Si	12.741162672876467	13.120665895704432	1.4970058218369648	14	0.662625520219095	-0.21092139626994375	-0.9108179163204373
Si	14.259037966960367	14.525377537873796	0.09953984833064361	14	-0.18136654061484153	-1.157560209021216	-0.38051381718169913
Si	15.665759871070057	15.981023646601292	1.3038864343676946	14	1.2775626931811475	-0.5916671271515201	0.004923923798615586
Si	13.995586259819305	11.591484136717433	2.7172348196145677	14	0.8046281812719374	-0.34728665179782947	0.6099173469349952
Si	15.422212777565173	13.053343934898205	4.101192772570287	14	0.99306449018559	-0.995286953624326	-1.2531330788712283
Si	11.489373569444737	14.575061883275383	2.756327534492501	14	-1.3644033180323407	0.017964569982406642	-0.018627658044472833
Si	12.85676783657996	15.849947184826178	4.214193657032227	14	0.150085959068856	0.2579651674232252	-1.1413617312832192
Si	11.222980302052099	11.536094540400066	5.470983245090141	14	0.6664896344047454	-0.5981668814008546	-0.2701267526980575
Si	12.725886024541973	12.838146904399833	6.8453127481179905	14	-0.2969963459567971	0.5430578099688006	-0.8801801111044886
Si	14.09813982304546	14.326385097991222	5.385328970679525	14	0.1508032974531773	0.3619764049339635	1.833731083398447
Si	15.748026233245682	15.769078609124916	6.725487376751791	14	-0.6857325579523297	-0.23042785811284314	-0.41433850744197126
Si	14.02877907404433	11.405221118436954	8.111819720897461	14	0.3084009978253779	0.2560764334550443	0.1136881066041797
Si	15.433004091870878	12.952162987921787	9.37849617318943	14	-0.0819969195385665	0.5031318867838172	-0.10526953645441885
Si	11.322125816863563	14.27482808787728	8.128534428065727	14	-0.3044294114373452	-0.37741974903943293	-0.19940155888302025
Si	12.659686655754173	15.686758550470085	9.426376652492642	14	1.3035272573671945	0.49804212669205195	-0.4369292672269203
Si	11.20741335712689	11.590994156344665	10.684250238224557	14	-0.8523065012182313	-1.0108575674431428	0.6530849197076215
Si	12.53498329485498	13.0199195546066	11.923417313012605	14	0.9492081182976962	-0.3497479709208072	0.8336729296315221
Si	14.070408947564811	14.452674183042006	10.873765249527032	14	0.4420923038203097	-0.08855195255228403	-0.6358317745672998
Si	15.356662800572789	16.012442798997498	12.343233167605497	14	0.2969351536501776	-0.9148738349629709	0.27322904837734824
Si	13.978633274524556	11.688740206666788	13.35179735640759	14	-0.5246828915772983	-0.09203014382938034	-0.053119807245855355
Si	15.276245610899865	13.071186268129825	14.763440878439628	14	0.11049890756506801	0.7622465953956805	0.5734243635734735
Si	11.198529945848023	14.280717920440336	13.333379464039464	14	0.7645541624205133	-0.5825047362326405	1.5779834943138495
H	12.977514438167562	-0.23434150335077042	12.794803777589642	1	-0.4906160031958683	-0.5948840941280895	-0.5186834744232648
H	-0.8541180124669463	1.7109141368343594	14.567477255587344	1	25.18908334023731	24.871120658836833	-28.22542888251353
H	15.689330947427113	1.6686449396083158	14.8183287482794	1	-27.02951446698953	-25.07024222435049	28.372180889313746
H	13.361195918283851	3.682306538273672	0.6035987667399834	1	-0.7269003250069447	0.967850174531962	0.8703885707137687
