224
config_type=divacancy dft_energy=-23032.05621680743 dft_virial="-27.547716496749413 -20.569663641133527 12.251079447613492 -20.569663641133527 -17.807602092944308 37.38097960379257 12.251079447613494 37.38097960379257 -28.426554262082348" pbc="T T T" Lattice="16.3999889955 0.0 0.0 0.0 16.3999889955 0.0 0.0 0.0 16.3999889955" Properties=species:S:1:pos:R:3:Z:I:1:dft_force:R:3
Si	1.3982138617893434	0.9719125478403166	0.9803585421729989	14	0.29431956820799093	2.2182763937221384	0.8023203571365725
Si	2.6039410527385036	2.743324559211258	-0.3347729753651415	14	0.9215188566628936	-0.5806399135439372	2.4985384435922198
Si	4.042859687214678	3.922155768207798	1.3764674763813105	14	-0.6740967637154676	0.46704693783660284	-2.2385264192236245
Si	2.424033173457868	-0.11217592472921999	2.70257058655744	14	1.861927109891851	-0.3540023788940562	-0.8411543318920891
Si	3.8338418274670305	1.235411171031015	3.994430519710966	14	0.12850358679046897	-0.8362610042467833	0.8494361192388181
Si	-0.0871331415330915	2.506393918193269	2.3819836016734066	14	0.3708564884886909	0.2921040467536193	-0.34592859396772724
Si	1.135666437960384	3.966452138484643	3.7880694581805896	14	0.23671446773113722	0.5103487223069408	0.6219215805642346
Si	-0.133758310247298	0.08944553998145699	5.356482405765232	14	-0.19758841541125183	-0.6919829149856097	-0.7663958451613354
Si	1.254074358507894	1.4199602471973762	6.656689933317467	14	-0.8366836939614156	-0.3585658337267871	0.8906843618899536
Si	2.4573743510857198	2.691533393963469	5.235466886967438	14	0.8325984647182323	0.1198070801556001	0.05678491787972644
Si	3.8443050204461593	3.5115328437384687	6.960745729294038	14	1.1190082845193194	2.584913441269934	-0.0534643353587552
Si	2.7940333251853438	0.106370328624813	7.788781173676833	14	-1.0375577248612846	-0.8556237413022864	0.7539411538800062
Si	3.9484121505895935	1.1493604287716266	9.427779673898106	14	1.7155222023098509	1.5832948836842116	1.2800450953677505
Si	-0.066354355475793	2.636511430883566	8.299083231260811	14	0.47858117341331924	0.8513420796126439	-0.1653156443222211
Si	1.3771562759191216	4.237478356624276	9.618691945794723	14	-0.08464952889736327	-1.3697874696832628	-0.6561291084066768
Si	0.10692792825066	0.1909450718746065	10.64815205502025	14	-2.4114831314467935	-1.2934618942598788	-0.0260185573977705
Si	1.3759426767334544	1.3744338777458684	12.010466340898443	14	-0.33967129495008286	0.13505656291993037	2.259821599037751
Si	2.742799759563402	2.683808999146588	10.871782304962887	14	1.033834250136646	1.5751352238401894	-0.7589532665911027
Si	4.106754044341146	4.115396838541774	12.419842866204114	14	1.2908031142483138	-1.7107589725937447	-1.6093347812561392
Si	2.797788922665313	0.36499815508384803	13.55772330267889	14	0.6167446600021165	-0.8643616427328097	-0.30792611467274655
Si	4.253517545861875	1.7134872502388354	14.899537602312709	14	-0.17896769935114337	-1.8844067979269696	0.06385005818896135
Si	0.039523973479155	2.319647243501511	13.75845916798381	14	0.5491682988726645	2.1890624666324876	-1.1247670462153874
Si	1.545305363089983	4.176978797219877	14.720138122690933	14	-2.1516395144766687	-0.3272677686646245	0.43708867575676946
Si	0.054792363233965496	5.381131589225469	-0.104435129923344	14	0.08381520522097523	-0.939012657261181	0.24833457822554644
Si	1.2875631360367048	6.577855186216099	1.471636612522197	14	-0.17029484688521987	1.5492441932662984	-0.713588427211878
Si	2.566467077883786	7.89874309989166	-0.22171145123016447	14	0.36093562150036756	0.8225870948226397	1.3544839937072095
Si	3.842583021601632	9.417578880742905	1.416729449365263	14	-10.778348610330003	-13.758168659253295	14.571158075026354
Si	2.699175788835372	5.236090086549267	2.6242770390929233	14	0.4986085411940806	1.0057253841135951	1.5151533936053911
Si	4.065344072127508	6.688686311847689	4.331319093656527	14	-0.9777594715463447	-0.4049457454864062	-0.6749292876181316
Si	-0.0681747542542935	8.145234934494026	2.8703096740034146	14	0.5631597398038464	-0.05796094145316218	-0.3256870531137975
Si	1.444412630789667	9.620955144276103	4.174174399101647	14	-0.8630318670612289	-1.6120465260372996	-0.09907805773297025
Si	-0.035587976120235	5.473611127171094	5.353825607547961	14	0.00508616054431693	-1.4012968796027416	-0.1804419711417163
Si	1.4031502584769888	6.688981511649607	6.709793097684897	14	-0.9338179960723538	-0.27594233582170047	1.887381566782381
Si	2.611157047896523	8.131573743660773	5.607845037099261	14	1.1727649545529757	0.6334840982994726	-1.9384498890932902
Si	3.9423605546502536	9.467467647267219	6.8872737785941975	14	0.9448140993055631	0.7196554644358314	0.9919967101461327
Si	2.7832913323932913	5.396826378694162	8.147432533019423	14	-0.08238798465776102	-0.8798695215818148	-0.3446073029437031
Si	4.13574922488519	6.639437144894202	9.617150346829145	14	0.4626220655806281	0.2776976294237656	-0.00835197852196902
Si	0.2130522570405405	8.174804114652911	8.292900435409507	14	-2.444734208110141	-1.2955750857225088	-1.7640536150013701
Si	1.2761651436848325	9.602685556535114	9.53906999922157	14	2.1903187086919123	0.17527430655875065	1.844147916603027
Si	0.08710034155510049	5.573208260340765	10.962097044361105	14	-1.5662829082229197	-1.042254877170663	0.2870708509788974
Si	1.377795875489946	6.875826586275339	12.2606317730358	14	0.003040846262139133	1.7629912342830847	-0.1822875105405186
Si	2.8946308576837407	8.199256498245202	10.86466470973884	14	-0.9367781096274405	0.38187341767499344	0.5631216874451082
Si	4.26694913684919	9.596601160617784	12.379548093242171	14	-1.981940906915191	0.9801413435149298	-1.9250261482167972
Si	2.83260609930276	5.597742643878033	13.416043797746765	14	-0.5142999969629444	0.37099044307587065	1.0928028077647745
Si	4.155839211404677	6.9785561173431505	14.726648918322148	14	0.24891590513843195	-0.7932993770103008	0.990458160722556
Si	-0.141892704789066	8.236845273022888	13.66611082995015	14	1.485217757252375	0.8035514023638594	-1.4203307722877978
Si	1.4063482563311114	9.493855229560976	14.921923587291566	14	-1.2630961119868023	-0.6589341843109583	1.5720488690138839
Si	0.138514307055993	10.886050295388973	0.031094379135467996	14	-1.6645104443159848	-2.443763358741253	-1.2915919293605354
Si	1.1945915984212154	12.225830996387348	1.3641838846236811	14	0.3564259027688278	2.1849075604351285	0.6541269886938774
Si	2.4905023288566297	13.663175231919954	0.0131199911964	14	0.7525003064585951	0.8762751163442477	-0.3312375552789331
Si	4.094404852627534	15.092171873053852	1.203955992137646	14	-2.2861659154795846	-1.7748208898610862	2.2212735311938347
Si	2.48427033303834	11.042079790692158	2.7491465553046606	14	2.368634632844398	-0.6475626997010074	0.36967866514153114
Si	4.072002467659682	12.24265738509673	4.208368376157264	14	0.2952107133119542	-0.4989127029534542	-1.3306040817147382
Si	-0.2618914242691395	13.633294451970155	2.618487842977512	14	1.1020495309381548	-0.23718549422578836	-0.1012007622852845
Si	1.194411198542265	14.846155638132357	4.003598113559451	14	-0.856745257442935	0.9755984575247603	0.21796828173140556
Si	0.087182341500078	10.856267915373143	5.547591477529794	14	-0.5278366093629919	1.0154395342341789	0.03165262048581098
Si	1.2580267558558094	12.34054891941087	7.033873280224973	14	0.6959889541849325	-0.15505024922099792	-0.7887297515248017
Si	2.6098778487548744	13.606168870171597	5.3294552239006485	14	-0.4372807373241845	-0.485245735513675	1.553837472920743
Si	3.981097328657625	14.885072812018677	6.727505085800037	14	1.0967558821945018	-0.03699280623575854	-0.8251533150426796
Si	2.758707748889037	10.94586105525556	8.43156234236646	14	-0.03377352526440113	0.6127483910030103	-1.5474837574535931
Si	4.096684451097909	12.471453631572953	9.648621925711511	14	-0.10681322808863575	-0.1452196280294117	-0.3347964792630821
Si	-0.1581450938836065	13.734367584149421	8.368323984799812	14	1.0151765101599277	0.841603503991519	-1.6108360496525735
Si	1.423256644985472	15.172482619164814	9.353553323704475	14	0.38568816663849714	-0.3763393705839067	0.601786997691623
Si	0.196373468232117	11.121209737595446	10.900383885771038	14	-2.301227964666076	-1.586514164655569	-0.6934211913017005
Si	1.3457994969597253	12.325100129777109	12.31183253867975	14	1.1033358549298249	0.9077703851844656	0.8998863478307636
Si	2.697617789880799	13.783255951345007	11.083161763125887	14	0.09983473402868984	0.3302489652833362	-1.1733650505346982
Si	4.136995624048848	15.081839879986687	12.383680890469035	14	-0.4522666817931996	0.8075738966372311	0.059202271101729674
Si	2.657601816731779	10.81284074451306	13.67783682208193	14	1.319281962326934	1.6333036534926875	-1.1981782737583833
Si	3.913562173974156	12.532149990845296	14.869525622450944	14	-0.6215387429820646	-1.2755394904047228	0.9151322310476456
Si	-0.0405243728078805	13.85649830219891	13.468294162686428	14	-0.475451881128167	-1.0580080394672104	0.433746238840577
Si	1.387832668755192	15.211580192930088	14.775012485869878	14	0.8969041227699237	-1.103246123354152	0.10835820527551272
Si	5.2631828683698325	-0.14438550311638199	-0.19860386673550498	14	1.35560833806371	2.40488773207955	-0.7904248812623753
Si	6.7177470923477145	1.2842667382486095	1.1049492585718126	14	-0.6568878415866525	-0.5566880106025016	1.7803022292931099
Si	8.278238845247529	2.5160863116896097	-0.033915177242693995	14	-1.3169977923605147	2.886043610360465	1.181907033739826
Si	9.65088512419289	3.863083007846007	1.4390498343881386	14	-0.41553201453158395	0.2613209740870824	-0.09857566375341333
Si	8.285668040262491	0.007084795246056	2.568877876266124	14	-0.7639088149851563	-0.8607962909853603	-0.4556168320253526
Si	9.477028840851595	1.234131971889366	4.1378976234436005	14	0.2848077640761031	-0.31607703275868	0.4431806527023283
Si	5.170801730358181	2.6112882478084876	2.7942793250202764	14	2.321802463658965	-0.43087894218754785	-1.1021315491978676
Si	6.721322289948733	3.975668932300114	3.9753573325092	14	-0.555583720867498	0.38887762278814086	0.8937930853325446
Si	5.401533175535871	-0.1654266889976085	5.329602823801608	14	-0.6802507042992422	0.8312926003261291	0.6379609068829144
Si	6.511500830740306	1.4761138095179684	6.830529816669768	14	1.4505695419580593	-1.2464680025498085	-2.0984505444977013
Si	8.047097400344953	2.695190591509465	5.3846083868925145	14	0.101174794121551	-0.5412950601613071	0.8179801883099985
Si	9.329068140134192	4.008140910511204	6.954415333541775	14	0.4838234000505691	-0.3155666683526306	-0.2986153709768943
Si	7.9708374515158775	0.15379909679979897	8.080881377675682	14	1.4490767582091812	-0.2450389354261807	-1.0712875413352432
Si	9.581398370818954	1.2722291463259126	9.423810876561197	14	-2.3544662998671897	-1.6580867947841271	3.0098423315255953
Si	5.681300587810105	2.755804950836833	8.388774771077202	14	-3.5944916267057714	-1.3194082035981534	-0.05151749441033908
Si	6.8500786035524035	4.2607171410308995	9.463580849875283	14	0.49949017320835937	-0.43420492402969135	3.0629212581968606
Si	5.426969558467891	-0.1136683237278105	10.885033496071252	14	0.10871507469394927	0.6770522492809778	-0.44200385779729656
Si	6.765454660335624	1.4262086430046619	12.270520966400085	14	1.4987147746304923	-0.22371418790087247	-0.6313444244520453
Si	8.419311550586821	2.961411612873417	10.858842713645437	14	-1.1674643638249584	-1.6099166223900887	-0.14519083164982605
Si	9.824954607391126	4.215764771194234	12.248118581432232	14	-0.8639111850807197	-0.8649090310554692	0.9823074997471547
Si	8.191646903351291	0.014267990426085	13.830537119619033	14	-0.4200728436374975	0.6290502271748772	-1.2895301600043088
Si	9.606998753640932	1.4113830529527298	15.054304298463244	14	1.1714768307875816	-1.1886528427682987	-1.3307647757972476
Si	5.7643173321053265	2.9277752354436464	13.698484408227266	14	-0.7462237241510496	0.5574881385781316	-0.08338145975346624
Si	6.876285785967212	4.375615463933372	15.209644994228618	14	1.7267389063795289	-1.770390875394471	-1.235451844695102
Si	5.2723012622513306	5.49104431547331	-0.105451929241065	14	-0.5293324784382542	0.46419121115751444	1.0515321964973534
Si	6.672942322412008	6.734261881266183	1.380747873509136	14	-0.086172908799551	0.45914798807204393	0.5051291213965082
Si	7.88824710693454	8.287422839085009	-0.0577771612311465	14	1.451967451920624	-2.0652920276258793	1.635373136164875
Si	9.38338490368729	9.296842161758034	1.4785082079113114	14	0.08578981410684894	1.5374885855215175	-0.9476441149314502
Si	8.228251678789247	5.288438851422902	2.794016925196348	14	-0.44070724938434586	0.5266950386008462	-1.5807230070324674
Si	9.437800067174358	6.864822193659358	4.022507300871262	14	1.841264936207545	-1.4409170983651596	-0.15221894804245084
Si	5.231580089575504	8.155288127748266	2.934482830942806	14	1.6405040339417625	0.18622541544885737	-0.9061960973969391
Si	6.961303328919885	9.604095955588727	4.180963994545784	14	-2.2116961638762835	-1.1166333545350988	-0.08118290759420761
Si	5.41184876861404	5.251210876403118	5.6451550120640235	14	-0.5413552240257986	-0.5133224627202241	-0.3013638825641326
Si	6.673647521938815	6.823986221060563	6.915235759831526	14	-0.8242480288594554	1.0481501645592308	-2.0254432376005003
Si	8.087523373218861	8.017282220351134	5.385625186210236	14	0.2278017311388439	0.7946597488351913	1.3543479822357736
Si	9.551402790946186	9.41574208197541	6.781329849683267	14	0.5894634327816213	-0.6332969218321658	-0.12360588826611892
Si	7.958849059560168	5.565811865303794	8.117322153223684	14	3.0178662370087137	0.28212815811144476	0.716799480646211
Si	9.092547498841093	7.499829767565118	9.915334946745325	14	-0.13852498399681015	2.5490619486857895	-1.2835901353831705
Si	5.41443996687533	8.151253730455375	8.302691228839821	14	-1.3416847743129803	-0.15112160029181163	-0.47997702649162755
Si	6.662544729388861	9.288494567359326	9.780543437191312	14	1.33306462950612	1.0214523211358773	0.19411999433437205
Si	5.607845037099261	5.387986784625587	11.10756494675119	14	-0.3860905446211003	0.7245025121853746	-0.5975300186130538
Si	7.372877452750953	7.017473291229472	12.046726716567493	14	-3.861908177285861	0.18201703026083899	6.1133582574012095
Si	9.57314917635422	9.454183656180861	12.172514632162978	14	-1.5408436208537786	0.2387142734491484	-0.9615987890565539
Si	8.321010016547795	5.536767484792764	13.590982480361763	14	0.12270548718300303	-0.08237358646796819	0.8159451584491013
Si	9.515913214759923	6.886748978946342	15.150949433613723	14	-0.5533833689345153	0.3043656480254055	-0.9269148353982883
Si	5.643728213021415	8.3574343921068	13.530154921177456	14	0.9175428993958166	-2.289967037584891	-0.24397398360257533
Si	6.760698663526929	9.612476349965428	14.974157552242232	14	-0.616961404180605	0.951861241877557	0.49504498922035545
Si	5.2647572673134	11.01000141221696	-0.24429423607696799	14	11.663834968594212	16.83150135133356	-16.349889873189916
Si	6.8923905751607935	12.272341365178587	1.3380587021538493	14	-1.373592191336018	-0.26816834177570076	-0.06949671969307057
Si	8.342625202043862	13.468622162466339	-0.027273181699516497	14	-0.16997988648350174	0.4505674382871138	0.1746536417344669
Si	9.762733049142199	14.903309599781673	1.2338367720874468	14	-1.2424416516184564	-0.26772919698701947	1.442886050819329
Si	8.12404614871184	10.893971490073799	2.7820121332516425	14	1.0263762449344926	-0.007714087292040281	-1.0634269010399546
Si	9.616871547016222	12.177123029070712	4.03129769497285	14	0.10013298224582702	-0.24269897247431388	0.5369997716134677
Si	5.381984388653235	13.642117646049734	2.664686611977835	14	0.5658324037841403	0.1511681372981063	0.2959036261957341
Si	6.939360143643905	14.97405915230826	4.087549657227415	14	-0.6601204923056746	0.24788951989462885	-1.6246536838641135
Si	5.47679272503622	10.761869578715046	5.554971472577769	14	-1.064110043723518	0.35887128103882066	-0.3574386611544342
Si	6.829463817385061	12.133482658353689	6.819787823877715	14	0.1846840378094286	0.03362980047700486	-0.1551494938863556
Si	8.1704745175581	13.497453343120426	5.345658413028202	14	-0.19000776848532722	-0.6325600430474114	0.39613765288064295
Si	9.300515759293027	15.004038332192035	6.630417150946677	14	0.891315054024986	0.3850402480978198	1.1706597335168385
Si	7.922818283737054	10.428703802271464	8.070270584795596	14	0.47512509364197614	1.8048603988690362	1.0984538401479278
Si	9.312635351160703	12.254596577085456	9.314324550027237	14	0.23091199724462702	-0.943473524991638	1.0180803165085026
Si	5.508772703577446	13.597214476180055	8.057052193665221	14	-0.8240834781189659	0.26593225147876803	0.450726589706431
Si	6.794613840769623	15.10898186177424	9.304943756321812	14	-0.23524173860375638	-1.0609799801067696	1.957443672535352
Si	5.413029567821717	11.077634966834403	10.93992425923919	14	0.5826158079824709	-0.7218969540539366	0.29528630380836657
Si	6.709415897938	12.387452887938002	12.403721677021537	14	1.257348663154143	-0.21256330412739027	-1.062638857259329
Si	8.204012495053899	13.746864375763991	10.842131124859023	14	-0.48646366810382907	0.1970955345213794	0.3783952263978971
Si	9.598093559616375	15.26117375965248	12.330840125925535	14	-0.2550911858963636	-0.5395796186917043	-1.5887636247001664
Si	8.08701497356	10.810249546251772	13.622552459178102	14	1.1166672931253248	1.1253218907434752	-1.0647939577386771
Si	9.630893537607376	12.064947104341494	15.008302329330865	14	-0.004222526267279189	0.48887639333625604	-0.7614539236254789
Si	5.494111113415468	13.812890731459875	13.756589569238324	14	0.20561772021554223	-0.1698441321225979	0.007235090370896695
Si	6.929192150466696	14.998331136021601	15.208972594679803	14	0.034506804501707365	-0.4583383470067293	-0.5614286145917907
Si	10.937415060922877	-0.084492743304816	-0.0551203630138755	14	0.7369780294197972	1.2732936299075737	0.0021877535169140005
Si	12.183863424547864	1.3587718882551658	1.535858969428575	14	0.5199268609560884	-0.8024928783035543	-1.4045346725324042
Si	13.663831231479776	2.566106278125885	0.013300391075350498	14	0.41620255879907864	-0.373740754436833	0.8532418693337013
Si	14.923251986400201	4.10080084833578	1.3557050903130075	14	0.18381834664813476	-0.18817174217620947	-0.8399492548285357
Si	13.61041646732143	-0.0783755474094945	2.666900610492228	14	0.5586978436312613	-0.6920675043506426	0.025737535586278313
Si	14.87169042099835	1.5408117661052159	3.878580997446754	14	0.392526792569027	-1.999343690385145	0.39686090480720065
Si	10.959620646022785	2.576799070950951	3.0302587666765257	14	-0.0648754149906364	1.8051249656064794	-0.31826581471772203
Si	12.21817220152645	4.276346330543611	4.3947214511131305	14	0.9554903570369461	-1.891997729274175	-1.8040782686306471
Si	10.94604145513451	-0.32529378172574247	5.325158426783828	14	-0.4706788812118441	0.967367835173902	0.41566674045035973
Si	12.100977880164606	1.225341577787778	6.795237040351451	14	0.2806580000893841	0.1439898683547849	-0.06196749487354892
Si	13.578616888659155	2.595068658691938	5.439712349917395	14	-0.20912393654062816	1.2866062990342362	0.8906928465375101
Si	15.159247828045446	3.9861977252352254	6.761141463229807	14	-0.9451077195331241	0.09307864057893674	-0.08594793708403804
Si	13.619026461544069	0.1094699265449625	8.276254446579076	14	-0.8151861681585935	-1.7055152032933025	-1.6859444638173995
Si	14.683844947043893	1.528774174182519	9.609343952067288	14	2.0823379416773973	0.20869224795737534	0.501116654433885
Si	10.751668785559845	2.568713876376169	8.32758641213499	14	2.6443031459495026	3.219993681752155	-3.2055492120635627
Si	12.27640856244947	4.218421569411505	9.343286930593292	14	-1.3994153447294573	0.1859423367531091	0.4337333833139762
Si	11.174411301896846	0.06330395752263	10.727642801681437	14	-1.121689176036638	-0.9085368316804019	0.8382284140377605
Si	12.365230902849099	1.45992702037941	12.262238971957357	14	0.6622753356744907	-0.4616938965600546	-0.9436550450272405
Si	13.507260536539736	3.05269395162237	10.911191478519074	14	0.1902227128900916	-0.6804003426288746	0.601786483470559
Si	15.066719090132837	3.9884281237386134	12.349814913193327	14	0.5418200798676814	0.4363728800356403	0.4226943426219204
Si	13.752538771956434	0.060237159580471496	13.585898483773159	14	0.23563511771773904	-0.06123704385209485	0.16459882015896382
Si	15.314129324118948	0.9818673411605849	15.288660141208936	14	-2.8575534494184365	1.0802915521664018	-1.4593161851466712
Si	11.093214956380129	2.6776754032622714	13.656041236706914	14	-1.555990516515835	0.43529455846437015	-0.13523602607127672
Si	12.334070923757649	3.9409009556296546	15.083086279150345	14	0.7497764774824303	0.29857191929698385	-0.4019439800251334
Si	10.837457127995306	5.258246471682187	-0.1942906696296885	14	-0.3864042194701584	0.3032772991433868	1.9622056166987984
Si	12.166955035893503	6.678731518527419	1.2519751599164701	14	0.6500340461347337	-1.623968741406826	-1.246283654298354
Si	13.60072407382509	7.690709239483742	-0.25485582899007	14	0.29829989635411214	2.2133283015335135	1.1057778907629014
Si	15.025407517853171	9.273668977307393	1.250695960774821	14	-0.4928551788191852	0.7920945570572795	-0.38939647184174675
Si	13.50261933965401	5.478137524133851	2.71551017787489	14	0.5892454030504728	-0.17936467801257425	1.1184295287117545
Si	14.901587600937146	6.83584341310431	4.245579951188054	14	-0.5621369541074913	0.3009663896816377	-0.7763537360662689
Si	11.059447379038392	8.096805766990313	2.503605920064034	14	-1.9158149062968346	0.3137105874220157	1.9424279032446232
Si	12.36806810094532	9.45262565722629	3.883943793848283	14	0.18864508266564872	0.0064511603587835455	0.9960958233580447
Si	10.750717586198105	5.352382408516357	5.6587998029082796	14	-1.2365859592518194	1.625163791159631	-0.11750234134661937
Si	12.06120790685052	6.790153043762847	6.9819509150652195	14	0.6740150025662869	0.6755026441045245	-0.5355383553494956
Si	13.613417665307608	8.267070452741596	5.668131396646719	14	-0.6513512233902455	-0.5793700446263159	-0.8183949075981383
Si	15.0304095144968	9.668711912230997	6.920795356100999	14	0.7186180234391517	-1.4905741409658395	-0.05863919903661724
Si	13.687217615787358	5.486550718488543	7.988500239664031	14	0.9960318028355729	0.007062312093382744	0.7732648101346431
Si	15.03160671369347	6.903886967446639	9.638437532545304	14	-0.47527961707171695	-0.006242386606787521	-0.5688506243194621
Si	10.927279867723657	8.196107700358066	8.49573549930585	14	-1.0075485548961123	-0.07370561910215297	-1.1856461922069175
Si	12.305403742993516	9.559012385840099	9.69880589203774	14	-1.1091583800378324	2.1003338791447095	-1.0679780145671485
Si	10.83007713294733	5.730352954895646	10.891806691526392	14	15.804474873863606	-11.97023976024903	4.058464293911073
Si	12.271652565640776	6.882960581488381	12.281508959027072	14	0.3334471631910684	0.043967186527192226	1.2589494333264672
Si	13.545816910668156	8.359648390621192	10.980071432300173	14	2.6903030483428036	-1.4743463526271927	1.3222929837673594
Si	15.089252675012654	9.77970703775254	12.32211533177993	14	-0.6800301034627734	-0.708692014240188	-0.8508826230919333
Si	13.734055984358507	5.354793206898696	13.82540392306344	14	-0.460381347294119	-0.058256875675511216	-1.8865346446899243
Si	15.23088297997779	6.716697493052003	14.900013201993577	14	-0.8684263031334318	-0.7220792454211351	0.7379432223569807
Si	10.755621182907761	8.260444857187412	13.626029256845149	14	0.4617975121044565	-1.938287909458121	-0.040451200001889724
Si	12.215597403254156	9.251627392097442	14.970467554718248	14	0.8105525221506225	1.018934694806388	1.3744331998862385
Si	10.89123269191155	10.674884037082915	0.0506923659850905	14	0.24844050776473656	0.1658553193289202	0.14534689774275905
Si	12.390142486133263	12.325739729347934	1.117724849999307	14	-1.2399003711200223	-0.7468202205853239	0.5167492318909174
Si	13.579289288207972	13.60531607074383	-0.4485232990379295	14	1.0681939874140411	-0.5722822785902638	0.2052940180557356
Si	14.976584750613569	14.857389630594275	1.0703780817692985	14	-1.702261212400123	0.4592500609532538	1.0190259690452532
Si	13.607333269390278	10.878785100263965	2.5234171067705984	14	1.3779250180215317	-0.24194692416817057	-0.08773845482898916
Si	15.145701437135164	12.113064672054291	3.97371733360965	14	-1.35914823586849	-0.42277276133418495	1.2900117280307724
Si	10.997078220888506	13.55509930443961	2.790835327331221	14	0.47247068450945534	-0.004199386319397857	-1.5571498279046898
Si	12.48796842049142	14.719777322933034	4.128287229892237	14	-0.1956246051677227	0.9851663117526271	-0.23323550512244484
Si	11.062038577299681	10.756408382379544	5.352480808450331	14	-1.366509824621138	-0.20851484169028509	-0.10738632746449675
Si	12.205429410076945	12.148734648119504	6.7969262392179886	14	-0.38310626267600445	0.1859371945424688	0.9425330146655277
Si	13.693302011704688	13.391558614176484	5.6378406169720305	14	1.4399603900755322	0.9202266191289871	-1.2019696256634738
Si	15.023537919107685	15.109933061135978	6.821772222546171	14	-0.5902507052306507	-0.3378722925575753	0.33269460066386103
Si	13.631933252883528	10.89785828746573	8.226824879746637	14	-0.9457101295096348	-0.38817571103574044	-0.17371518829261287
Si	15.049581101632539	12.159115841153655	9.421416478167853	14	-0.2542432353617788	0.5753737756272097	1.9765202455687227
Si	10.725051603420148	13.64395444481723	8.050508598056018	14	-0.046714155451238436	-0.2105789250413	-0.5415056336870272
Si	12.30706014188206	14.81050206205614	9.34161413171575	14	-0.08910525441717988	0.6635467472553039	0.879282538237225
Si	10.812217544931231	11.012969810225146	10.931921064609385	14	-0.7518359328438688	-0.5973888649309778	-1.4258265099096146
Si	12.072343499378464	12.146930649329997	12.40468927637227	14	1.3633383662087353	1.3951177421868297	-0.1089063649297683
Si	13.556214503691303	13.411779800607935	10.817383541464812	14	0.23176046200027586	0.49899112166571863	0.6745338516198928
Si	14.933223179709467	15.075607884168397	12.083249492060471	14	0.25451140164667024	-0.13269397424124632	-0.868118798937142
Si	13.485382951219739	10.782582764816363	13.736712782575777	14	0.991881267517258	0.568521522838483	-0.0487173036061658
Si	15.295367736708096	12.059502307994988	14.841432441301654	14	-1.7145048159346683	1.4773779429101794	-0.06518009097107395
Si	10.853233917408977	13.787126348747943	13.5813720868104	14	-0.8395875003099909	-1.7996251142161506	0.007293711572196071
Si	12.204625810616166	15.105013064437328	14.776340884978513	14	1.1718807514333767	0.5014892075947746	0.7155640645398799
H	10.004504966911659	6.374729842514535	10.61548819693791	1	-13.66647610155245	10.174003619955366	-4.423761024255476
H	7.81809451400739	7.106826991272555	10.814807103193619	1	1.6046813377372031	-0.4036799903372973	-5.039684987439402
H	7.027433004546439	4.675902542438776	7.286685670586203	1	-0.5059315633669264	-0.7691533556171942	-0.625885453636307
H	4.294225598546506	10.09673522502455	0.6808422631503833	1	-3.2752181958130837	5.727933371947496	-7.203729313754189
H	6.436411841125509	6.151793312106406	13.121690235259933	1	-0.18211524648406865	-0.2950237939551794	0.31500231073485807
H	0.5582244654277285	0.0547169232845862	0.06831907415745389	1	2.4789548485897157	2.4168390009391945e-05	1.232932675702421
H	4.872546610489319	10.337142663709587	0.4722754031001122	1	2.7087278461775175	-8.427049397996171	9.91680284214382
H	13.94815456069696	13.874799049918987	1.9373618600175064	1	0.42692458220516016	0.34535626592346225	-0.29515337766331495
H	16.084902566925056	-0.0032963977880955	16.185975699104322	1	-2.455954511727267	-0.2721129315578719	-0.8483035473452928
H	2.339822509963775	14.3095381582062	13.89757207463814	1	-0.02534467069335969	-0.030480196459823465	0.05716878390402456
