219
config_type=vacancy dft_energy=-23079.370408344206 dft_virial="-37.251726516662536 -14.926411941189414 -29.85282388237883 -14.926411941189414 -3.13880660368038 16.300895754836905 -29.85282388237883 16.300895754836905 18.764517327251852" pbc="T T T" Lattice="16.141310468328005 -0.557283620392972 0.1050640491147775 0.4693722261836355 16.356703882470153 -0.048906063139054 -0.2946477245197365 0.1510951851604525 16.560355319101703" Properties=species:S:1:pos:R:3:Z:I:1:dft_force:R:3
Si	12.397331677682468	14.580410796294972	15.361901582037154	14	-0.2045838787663107	0.1839823831675602	0.22831260976595733
Si	1.0883957134707118	0.7417214993262987	0.997132929531734	14	0.34311966140546546	1.4736580677329891	0.673980806865529
Si	2.5959283399872124	2.492321135950091	-0.2082997738083724	14	-0.6798429269954664	0.07329887024050555	1.168764314674825
Si	3.951968459958445	3.6959012879553064	1.3953426345163364	14	0.052044056779905395	0.8760090069436124	-0.3233591743569354
Si	2.592470351837255	-0.12260271951196995	2.78128038113113	14	-1.1809487827870069	-0.2550528764270934	-0.9456607642874879
Si	3.8728336690218175	1.2362331863011948	4.122122150569387	14	0.30005236174032507	-0.2369813484633686	1.6405006915048461
Si	0.1060105138769798	2.6159268496895822	2.4017383207225245	14	0.8480492650291303	-0.35473334413657437	0.7825961226730564
Si	1.3338095039525426	4.128193415144675	4.146168169988616	14	-0.12008810196709228	-1.226997536181391	-0.4850932689681902
Si	-0.06760116488392025	0.01596230587857565	5.234111647736774	14	0.537057107262107	-0.0746906095503017	1.1054940407355573
Si	1.5335894797735137	1.279883624293139	6.691838585051854	14	-2.0808911807137496	0.057198865836270284	0.4416351612943873
Si	2.7453486378466345	2.8178646359581685	5.587512868254177	14	0.037826358580550556	0.04977402789274666	-1.4332539189584583
Si	4.212372249515361	4.091570397255704	6.860968284776728	14	-1.5379552411371242	-0.41119790229341036	1.6334548344855122
Si	2.735176564344331	0.09909776783222579	8.230142622232993	14	-0.2867026686970522	-1.5053950204733009	0.08753070951912122
Si	4.010780100549012	1.3135622646027678	9.721934215349453	14	-0.22059029493689258	0.9751428576620299	-0.48775899096411973
Si	0.029442160665845946	2.6921996345534756	8.119913395115615	14	-0.168491473613668	-0.4460515489028057	-0.45012700794577243
Si	1.2470690772391049	4.157302859528928	9.38894497719504	14	0.5852180236769928	-0.3347543131358317	1.3265576761618891
Si	-0.027321498152583796	0.19887873463102423	10.87524836679279	14	-0.8755091840693757	-1.330165451147121	0.04732376452264554
Si	1.1331428230898495	1.455825932152773	12.43924262327016	14	0.6220527069355621	-0.11703388595728839	-0.1708196094810621
Si	2.464403655720284	2.6683926540161687	10.91506126165335	14	0.4377445647239392	0.6872963042080439	0.012258773055934025
Si	3.8869676504792103	3.9387276440530963	12.342855039518097	14	0.3920524236374597	1.0054819004397775	0.0824466058590604
Si	2.436478099852575	-0.0935384986999727	13.746693245108126	14	0.02654357710414474	0.9579686454550367	-0.7488382811511083
Si	3.6819385100214514	1.3234048520786394	15.120649975330402	14	0.4026633752937108	0.4592582884902783	-0.6830077005340369
Si	-0.1509562841885252	2.882586028365968	13.807430117774707	14	1.536181435576754	0.3026185819603649	0.3845247414811301
Si	1.2234672179045276	4.354401723566186	15.169284697035922	14	-0.5479503662825103	-0.2519243554735372	-0.03782327325416637
Si	0.029361404286818448	5.512251153255709	0.0612036445373617	14	1.1069577709943175	-0.5377780451938765	-0.09603566880763903
Si	1.4918691192403268	6.647622852406717	1.60528983845687	14	-1.0711738984800925	0.5258296045500844	-1.061611957794462
Si	2.7739073237259193	7.885395255292177	0.07638907404969279	14	0.6259803274226203	0.5213525388561105	-0.30256201764332163
Si	4.232186634673548	9.236207207285169	1.3685751251238814	14	-0.5597350275174092	0.3902837602877298	-0.6549286593326996
Si	2.7999980946621243	5.2922013262988346	2.8304690915967807	14	1.231963883217789	-0.4519704904603185	0.12492152285843866
Si	4.284277729401446	6.666421322316738	4.181295579737998	14	-0.23148792483634018	0.04387411251460287	-0.9715960178728857
Si	0.1811268673931992	8.109316543059629	2.9338259508589166	14	-0.4912955463319835	-0.18258061654701543	-0.36772822464566673
Si	1.5890497306344396	9.556456319084203	4.012072202613452	14	-0.3272168607792856	0.01976717192236246	1.6582138073869424
Si	0.18369653537385425	5.619624834810673	5.5178734123636035	14	-0.8610701137019562	-0.5950599577319876	-0.20573444839707697
Si	1.6279258514982782	6.8376975265961635	6.766349265725368	14	-0.5638534240192223	1.2413900695425162	0.5201150658655233
Si	3.0031520719988642	8.17994930241224	5.425717462872581	14	-0.7435703434606569	-0.03804464542223113	-0.4348800962867623
Si	4.34713203432613	9.502554666338508	6.7253605579861695	14	-0.4742876846392039	0.2753975186043611	0.8579806735492662
Si	2.7223895992891163	5.538207868602727	8.266033987327974	14	0.8731861904126218	-1.256424093681018	-0.6338566514603621
Si	3.9684524520455384	6.8678261164837435	9.641712443551114	14	1.9319095113798974	-1.1257144985258618	0.12349507362682051
Si	0.20310229325416249	8.207593826080934	8.238244102177033	14	-0.08571756604735278	-0.6192823409531026	-0.18056692686027548
Si	1.592791981238574	9.556743811793542	9.535411206709636	14	0.01526002429614288	0.8414597792041226	0.182399096511413
Si	0.06802109805486324	5.557368127090792	10.892908171758526	14	-0.038381974440234556	-1.0236706708061007	1.0126388292089414
Si	1.3491903639021203	6.883983852799566	12.404735422511708	14	-0.5432141331722656	-0.07475257318851726	0.12076121733990706
Si	2.775821249908871	8.095894832865257	11.035297819259814	14	-0.7075689554363475	1.837010528234296	0.803303290700465
Si	4.062141157610502	9.480962025714135	12.537166193351325	14	0.08600013052203705	-0.20545368369611683	-0.6114188724419617
Si	2.735430139374477	5.559800509227101	13.74497797961758	14	-0.07712801739380208	-0.6164487257797675	0.034246865753840394
Si	4.0418163921368615	6.848315375310699	15.274642699370359	14	-0.2800342499387161	-0.5324172906013678	-0.11758898759590837
Si	-0.0861056815742816	8.277252663502475	13.769592523945164	14	0.001015586601458491	0.04611868745909214	-0.051184536271379893
Si	1.2917596573929233	9.52576243454343	15.215769683931732	14	-0.29677086002022013	0.09066720089916985	-0.2532818990825754
Si	0.145070759285001	10.756373361736731	-0.05190212480097425	14	-0.3854979048448062	-0.6363783915583633	-0.2825274507676638
Si	1.4413350075000784	12.187938462502062	1.1456261441599203	14	0.7524064611144097	-0.29385419814504404	1.5924647308085198
Si	2.81085013687584	13.605752367046591	-0.0335978839306011	14	-0.046028955883418966	0.22903380480825883	-1.0913056531368521
Si	4.270437701163713	14.819401224388956	1.3345411567465317	14	-0.5462989453353793	-0.2503840062762365	0.4978312960557999
Si	2.947386562025214	10.736281174634689	2.606292613671602	14	-0.15074004826230167	1.093039092343696	-0.06408222899937072
Si	4.340204752133151	11.986740404665369	4.151918024175375	14	-1.104762047050911	0.8637322361504375	-0.3226073831613241
Si	0.2554356571191436	13.521160060015285	2.7189057690978697	14	0.31827789891272673	0.2463059761279496	-0.5532784678374533
Si	1.6952508295659243	14.811674454043604	3.9732849137665442	14	0.37002139348070684	0.4005920928477995	0.5030154157128145
Si	0.26556089192161153	10.945478959377848	5.65746888915054	14	0.42483298802721964	-0.6652534469668183	-0.9551180609865886
Si	1.6523207384749052	12.35543365311542	6.841996996215587	14	0.5044189821070832	-0.6668637302288271	0.031451045828711374
Si	3.0424142083544545	13.603155241897067	5.493628732251967	14	0.6204259685995045	-0.23015866338582364	-0.2201894596174815
Si	4.499338427262002	14.854824202485577	6.980117861521482	14	-0.20397375547383959	-0.2452199412407191	0.0056258355510160115
Si	3.0791728969601917	10.995575371543767	8.128073019652556	14	-0.43244654510124214	-0.8009196189581559	0.6560537750207964
Si	4.349934280678385	12.117883918823289	9.793818698576992	14	0.252372756241371	0.6736023401624032	-0.8074769659666615
Si	0.1404353431288225	13.627697105483524	7.931426391337851	14	-0.5199672273096148	1.1998417789005191	1.2557957155407737
Si	1.5888849876212234	15.023165719951143	9.26328966655583	14	0.19283341323216996	0.2756307178568986	0.9723475519579649
Si	0.08817142974980505	11.091100477167815	10.774296432498094	14	0.6892107492294262	-0.24774245267031633	0.7291536417095226
Si	1.5757200827121605	12.444532166096462	12.204627575791886	14	-1.8271575384264245	-0.4361818469103532	0.3416168503458389
Si	2.8947543995578315	13.668689043477883	10.795971444629076	14	0.055500393661780466	0.23863996850539607	-0.4226406065207293
Si	4.197732733125255	14.898266289019633	12.275932228218005	14	0.27675711909765544	-0.19929357245957405	0.4529464820398467
Si	2.5451422683443985	10.869151260176217	13.654219115483736	14	0.0017527224967449457	-0.23240838054095322	0.31061420528496136
Si	3.7722096056259717	12.186072990146528	15.072879346880473	14	1.1444030917664223	1.0520230205029697	0.7376719707457051
Si	0.11206562717646175	13.885880094617184	13.660892822646568	14	-0.38596481757094503	-0.9600720667174499	-0.9087489478693141
Si	1.1637123428069194	15.476418972880891	15.007733175918988	14	-1.4496233752002448	1.5511092730655338	3.0710333525924596
Si	5.005958725708281	-0.09267440544437844	0.1416628400900405	14	1.9355401692024785	-0.13646038642473124	0.0062626983388166906
Si	6.615053804744926	1.0307227378244324	1.553494312076212	14	-0.1085227560160022	0.3130978930242244	-0.9123819196866833
Si	8.065633802516073	2.285760854545971	0.0850784604330518	14	0.797762815846078	-0.29945509397445463	0.4276056680044673
Si	9.529257570627742	3.7015429285941677	1.3874091278406748	14	-0.2645006600365095	-0.2686126287750223	0.6390070896376827
Si	7.917864165043973	-0.2233204603074874	2.9871073946136804	14	-0.09930225811688716	-0.965385512972068	0.19749765539345057
Si	9.441150745981158	1.0150560002930973	4.229880232488522	14	-0.012251316850505596	0.40151460543666867	0.6422531101043696
Si	5.265710003722654	2.4148789987178794	2.8143533485980528	14	1.1444146617403628	0.8817446286917987	0.41339825422639304
Si	6.690641775514667	3.6256157810325123	4.472955318233717	14	0.5399501149683377	0.5370805043205203	-1.6769054859538868
Si	5.349877532200276	-0.13998149227868795	5.6623950282712165	14	-0.5686364512462938	0.20813714631875535	-0.5343579608970156
Si	6.770504988990122	1.0970527973024597	7.073007078934073	14	0.10871790290980145	0.3633272636691693	-0.22627655146293207
Si	8.211350612833295	2.457707336771324	5.806424030266763	14	0.5086772467383126	-0.14841165528437555	-0.39052570129835573
Si	9.684414801653277	3.9148269861161173	7.106201180969538	14	-1.1095340185251061	0.4424198626380966	-0.2522660553705849
Si	8.162927472840824	-0.19848787375653112	8.433075327091197	14	-0.03581986798870699	0.475922907622818	-0.0731595163321535
Si	9.407754752998125	1.3162514520243835	9.838766084016118	14	-0.6439950339587699	-0.4469964301079601	-0.43129957501792404
Si	5.439631786979019	2.6515387977131297	8.258547870992127	14	-0.1228625817180641	-0.15982247780572473	0.7040257151946513
Si	6.7574030740567	4.064899795518081	9.657275812917296	14	-0.22891064886342377	-0.07715347133647155	-0.015806898397738377
Si	5.1710021526543635	-0.14548261681804123	11.04873729585757	14	0.9275136458273506	0.16280701686135263	0.4859173082232977
Si	6.5403202364652975	1.1568771228860317	12.565891237371407	14	-0.14294008605256842	0.7206918769903832	-0.9460667418175392
Si	7.90919577531916	2.6479871321635	11.0944647879181	14	-0.45648766539728675	-1.0761189053423337	0.248431251785584
Si	9.212214487076098	3.8885246334668606	12.494657650558828	14	0.5407098765904413	0.6341986084679417	0.6875557287348468
Si	7.788976984116083	-0.24282958635295082	13.942264198454184	14	-0.5001000393902985	-0.5220873607566088	0.0830040214924685
Si	9.166977993800053	1.0448987125989198	15.233671758034548	14	0.3884317931256272	0.35779758745712686	0.9680880017740757
Si	5.206341144116797	2.6962552199082364	13.866422652654299	14	-0.055037851814685824	-0.9135779978816162	-0.48266923087235464
Si	6.617397354864305	3.8889930204652203	15.292932404092507	14	-0.26945955086747914	0.4752369367234025	-0.8415996473335385
Si	5.477354706750345	5.03799478126849	-0.00779622083131485	14	-0.38816182706701163	0.27049673475362684	0.6026534601845129
Si	6.929087905614004	6.255999637695598	1.4093861688292186	14	-0.11111597284190357	1.22503475437999	0.0563797116812711
Si	8.306998468153465	7.870196904759201	0.07584154579988635	14	-1.4946593702090227	-0.5624169474768557	-0.08752453886635284
Si	9.614413557184658	9.247225607639681	1.245920721529334	14	1.0752118193853855	1.5370962348496626	1.0601842230101837
Si	8.163219810932905	4.992120312598129	2.9724598025856728	14	0.053394915515111205	-0.5069072978359226	-0.17593070974698446
Si	9.529373859813541	6.484548265981326	4.227166818153198	14	-1.013623562546558	0.384677722247679	-0.3890912816402451
Si	5.594315785623454	7.904586201204271	2.5968392719426423	14	0.8520771586236743	-0.6886381640746291	1.0644987948479243
Si	7.009174006695576	9.331758154950506	3.9484281003018795	14	0.6104845327686199	-1.2205929128289021	0.08525579553185418
Si	5.531955709738419	5.297674993669319	5.578597364009542	14	0.8435565155927034	0.9275254729118234	-0.3756235748627775
Si	6.774273081635545	6.713268097790591	7.021571726003878	14	-0.16634177245549223	-0.5490160894377117	0.8921136393374239
Si	8.15445451355326	7.835232622895454	5.629813059588781	14	0.46036746332539014	1.1646508032731202	-1.4053186025445172
Si	9.63987765861961	9.169382918767493	6.898373024414685	14	-0.5377183955504491	-0.47047756366527643	0.780730014431693
Si	8.246503864623964	5.39546612328888	8.426028525457259	14	0.07774174023372142	0.02130829245125922	-0.2582096795391712
Si	9.57339093176627	6.764755134803365	9.9239333764661	14	-0.951582019839789	-0.5642285482854319	-0.4835143531910874
Si	5.410076567382535	8.219926940286014	8.350716741503792	14	0.6309201920742209	-0.3484559904974328	0.05372067455917397
Si	6.824626299086772	9.580570173861815	9.76238831585949	14	0.4333286913365849	-0.719075423075606	-0.8555666627641793
Si	5.4428103580575415	5.408595495391171	11.099650962579249	14	-1.5777063291603377	-0.4451992274891766	-0.8778023529044157
Si	6.693204982984999	6.7377388957635045	12.460185982607152	14	0.24743083470551444	0.7831478818747603	0.5857384153937908
Si	8.085558016349738	8.187290057265841	11.162718464344563	14	0.10068165612114661	-0.6522233423148398	0.0029732261922192386
Si	9.368670280676396	9.468250971655207	12.63948937096191	14	0.49217049347242986	-0.8149326571740267	0.037293882668747884
Si	7.923518726703478	5.370864499981943	13.904873994964452	14	0.7975224174986442	-0.2974321483085622	0.47780315694344233
Si	9.376127324715796	6.71123788242184	15.38270604040222	14	0.5930012737021451	-0.602204288085083	-1.9095457801947175
Si	5.44230643825241	8.196250785082732	13.915755109474617	14	-0.3221700381463669	-0.5422072883288956	-0.2746346716558732
Si	6.71687790793312	9.5351237140003	15.29784723732012	14	-0.22563043269597885	0.017720314976992578	0.679783277352039
Si	5.450155958293883	10.731513318016907	0.03865807864046424	14	0.5275468457934113	0.05572125160878119	-0.43211435829387906
Si	6.819144556078386	12.11889337356113	1.4574394446057424	14	0.07534007075417111	-0.13640356499715597	-0.3982202481899629
Si	8.362528169500354	13.36617887789603	0.16904894334584628	14	-0.7537537203021674	1.1247320791830333	-0.1202338836387447
Si	9.713251289476418	14.707283913129915	1.59976933238655	14	-0.09382040446379945	-0.09834066472715179	-0.6924081758055621
Si	8.333680375784152	10.75892364818642	2.5981927488551437	14	0.046582771969378864	-0.7237286094840101	0.5634214783254374
Si	9.709300687414391	11.906893342465718	4.17293567938107	14	0.10261512732189797	-0.3487249281139203	-0.11915813317279472
Si	5.477298177285026	13.5269551377743	2.8162559688879405	14	1.1801725660908542	-0.38787694859753924	0.21020302944349434
Si	6.975828082667541	14.682317270989774	4.298729890992208	14	0.8643480158746129	-0.015513278170177466	-0.3953467808841654
Si	5.782376395719954	10.638448051698035	5.3471092035272125	14	-0.31949351750809274	0.3296164733745798	0.272895318906793
Si	6.983612997605792	11.83686141057307	6.921007422328513	14	0.03501922579201288	1.7012420262512162	-0.16909774024815896
Si	8.449394576165075	13.18872319549342	5.640417987282673	14	-0.6448524975830393	1.2571265196544823	-0.05846384965378314
Si	9.868293846443732	14.647709932321328	7.05675728034616	14	-1.4185106868316653	-0.6370895592899162	-0.22349332995387178
Si	8.391800741770242	10.668352138851917	8.21712307880618	14	-0.4103229551529639	-0.9678478605371738	1.1251665959821384
Si	9.556100991016482	11.992522561403737	9.734386848995495	14	0.2564466726211456	0.21248025742554946	-0.135588267500137
Si	5.886479443924304	13.435587370542585	8.405999328330857	14	-1.284258365655877	-0.7976969955498822	-0.9325257585384474
Si	7.1076321840059045	14.935777627077906	9.600791571170301	14	0.4790915378193686	-0.3299777136720606	1.4475209823799597
Si	5.58989679656307	10.807559985019521	11.285127368546869	14	-0.7746300670596417	-0.04010847166271399	-0.3164557565723378
Si	6.8956386134208145	12.199016622577055	12.554691942727874	14	0.3743099971547138	0.663113516008859	0.07199377717999839
Si	8.382282794938062	13.491063772679317	11.096758269082484	14	-0.7073349848522139	0.10097373368551545	0.53408670928574
Si	9.767073800970664	14.767812434338609	12.616725762841638	14	-1.3978202309888372	-0.09870653301420886	-0.5805316700099589
Si	8.139401524502533	10.845500947014221	14.023025422864425	14	0.28431591162835873	0.7469618884884641	0.1275350514163692
Si	9.501233491977619	12.383551409165216	15.299472055666154	14	-0.09244049223847597	-0.7191309589505214	-0.7829275381488235
Si	5.424591718948937	13.559096176627243	13.851172618038744	14	-0.23065154427569604	0.03232419319543366	0.2788515414914481
Si	6.632256528605364	15.026376593581277	15.397177583523947	14	0.8170911000902911	-0.8364934321677248	-0.744822985972633
Si	10.767380456198179	-0.5858552272929015	0.1479521468887022	14	-0.5647849354767119	0.6806016601754422	-0.38593576408082736
Si	12.193226390200783	0.8027587857228636	1.3828835403599737	14	-0.3536467950282797	0.3022830527160856	0.10031475939196148
Si	13.440810693138083	2.2313003676574055	0.0162837162671051	14	0.5683047786599947	-1.5420217013114705	-0.8080474942372023
Si	14.867682233154337	3.3983414884078385	1.2832947737432607	14	-0.14355663710833994	1.5694265986978648	1.2229009940747992
Si	13.510589050000586	-0.501091716738057	2.7736521335681927	14	-0.5139025040804495	-0.3168046555642819	0.6325057927251562
Si	14.881774221294636	0.9311016686561083	4.016641398538828	14	-0.3544600356410426	0.3562155863536397	0.3095564525562524
Si	10.900523498300819	2.262620921699431	2.752036881157692	14	-0.58061985892244	0.10076701681777553	0.3297897658731577
Si	12.125841652412657	3.664251247886849	4.226564375565653	14	0.38736555574936177	0.5582471288686394	-0.2631153484900137
Si	10.659709591168395	-0.4891914567245645	5.69420658109773	14	0.3597433999634149	1.5760996454457772	-0.9631195978534213
Si	11.9952327454839	1.1281391578453057	6.813649892049354	14	0.7315720233736538	0.16952351528917545	0.951702347568772
Si	13.659952818394688	2.4127357244184897	5.488801115913703	14	-1.0181993586848257	-0.8727267338919114	-0.06756479115551131
Si	14.96762632783877	3.6652962354314647	6.92951429929527	14	-0.4419413799380169	0.23973063138220296	0.5105641809327692
Si	13.220552514723318	-0.24994906872801523	8.348045320485562	14	0.23857080577228412	-0.8369027521346922	-0.6901569159872406
Si	14.704567268539432	0.9333806136722643	9.675541290725734	14	-0.010214230105352273	0.48139190574930507	-0.06263521092519138
Si	10.927681868567769	2.547862143190044	8.54487607334445	14	-0.11335052047564426	-0.4457255327482109	-1.1172609613437472
Si	12.244277342766809	3.9438056051663457	9.845003706732202	14	-0.5650538730931994	-1.4558811884389533	0.7278102391797451
Si	10.433837229283638	-0.29115097330784573	11.15941714356992	14	0.4044361524119529	0.10609563259378242	-0.2870520819100603
Si	11.760230067386296	0.9820573286948804	12.522405542392677	14	-0.10662939405824516	0.9954391630592789	-0.12091805476443608
Si	13.30157377467403	2.149896322470105	11.163632626555156	14	0.6420134830885318	1.469680310692188	-0.12183208270574872
Si	14.804370847124357	3.5890299110778936	12.467978973183305	14	-0.9240732497984606	0.5093691311799644	-0.8956157418939975
Si	13.026146068362838	-0.3762746573131529	13.851569939423559	14	-0.6081851932808116	-1.8297839225109556	-1.1531394505337533
Si	14.803335550345224	0.6337001516115341	15.020471687146786	14	1.9997126439985866	2.3196126532577943	3.018884908936556
Si	10.511436033891162	2.4886644871077257	13.892985040844023	14	0.1459313099820287	-0.03690410310221344	0.13703400002165628
Si	12.006601628523391	3.8105220469641985	15.236129982212145	14	-0.7386361352407607	0.7323379556485259	-0.7459185339495481
Si	10.988279840262422	5.124223212538894	0.15678689475431068	14	-0.731072457609949	-0.998461240252581	-0.9284775532118742
Si	12.197690602833424	6.450598284238165	1.5122164965000955	14	0.2319324689461938	-0.09662470903648496	1.4826762196434085
Si	13.546226840065422	7.646285307757233	0.1258345898006505	14	0.3600316208698035	1.1899638493710423	0.13916004701088672
Si	14.936323540200132	8.880200785980339	1.6768464507855572	14	0.2465155212115417	0.6796655207283764	-0.9774064587858882
Si	13.578295198177242	4.981106757626358	2.883941120406049	14	0.013796294037382575	-0.007451063217789133	-0.35318836694969735
Si	14.802809018753965	6.390174746322208	4.459588522377086	14	0.6534212202834968	-0.7723497537512023	-1.4099512201103601
Si	10.78599803181918	7.930940237936106	2.865157186644253	14	0.23117245021355803	-0.5565658830997946	-0.9228373194710655
Si	12.204275477979326	9.135151904825316	4.218782690882564	14	0.8464952889736326	0.26876509532050713	-0.05376901133919275
Si	10.911348083345665	5.307759850282273	5.567595114930835	14	0.07698095016948961	-1.8946673079280847	0.17318374082293828
Si	12.21124798374456	6.577765354292769	6.942945700255124	14	0.009306372816807986	-0.8599678808512087	1.1980646309032328
Si	13.522981923926144	7.840751513838193	5.653884921049299	14	0.6387281247104467	0.9488851874694857	-0.06478131253591898
Si	14.955900501603976	9.07657930311667	7.099659914268309	14	-0.4277254815123862	0.3412916055228402	0.08296442647053821
Si	13.442721389065875	5.037674986007541	8.276839190841855	14	1.318415242723512	0.4503319250397882	-0.5276502042272813
Si	14.850007892040377	6.309064654354568	9.733548597781189	14	0.5127838161556529	0.21431139863455895	-1.6962283708769277
Si	10.924277179627968	7.839485253815043	8.398112660355032	14	0.08904277655790029	1.1801039175788064	0.3861501942645278
Si	12.146773705856585	9.310052455395494	9.96551806628252	14	0.38025362132330015	-1.6856618993427153	-0.9233098886289086
Si	10.733895631198216	5.168736128658851	11.171705034202743	14	0.1680795825413803	0.16344310831755726	0.20129389239864923
Si	12.285052853665373	6.4572316132114835	12.393032208063044	14	-1.2703785106955896	0.7468562160598061	0.5315384868029412
Si	13.678572009143268	7.713994686189049	11.033907194412961	14	-1.2587131487475456	1.342441707719232	0.31169612640367966
Si	14.868665845850892	9.19720995185279	12.376326943497414	14	0.38388993557758555	-0.08079132825394905	0.4590199470271006
Si	13.479985612604324	5.100979911527198	13.7744556730902	14	0.037004890430763236	-0.8300301876139364	1.0906479643959581
Si	14.610166291711446	6.464271954335101	15.372947439560535	14	0.40567568228679624	0.08934102477503746	-1.2239248082132823
Si	10.861828271726003	7.983908346940243	13.781526701637848	14	-0.6634475025899462	-0.8018002225303065	0.35073090448469985
Si	12.058385849010987	9.3017313181005	15.280500767105014	14	-0.12998531478647032	0.01995229150541312	0.29623349900830914
Si	11.116504818882287	10.78670545769946	-0.05129483683068745	14	0.3835199535220163	-1.1185064047608266	1.2357341520592544
Si	12.58827690563783	11.942628040185387	1.6020821950818975	14	-0.16300010687089575	-0.27136216880438874	-0.9522083410957771
Si	14.173033627163168	13.155895727418741	0.12062903360853784	14	-0.533686902408457	-0.18201214516073072	-0.21684676559075697
Si	15.576976816045933	14.740531314375538	1.322416393999343	14	0.6061697038203474	-0.05123313016193069	-0.15513406725443474
Si	13.782985161843085	10.477726706157503	3.059952878751647	14	-0.2894527229474826	-0.28998776996460546	-0.5154107144612483
Si	15.136174581634647	11.844580105280519	4.445953615342082	14	-0.3364116476251991	-0.6419386639237156	-0.5105654664854293
Si	11.052579684371699	13.267909670512624	2.820015985895461	14	0.5406535693839302	0.08602584157523853	0.4069622633889984
Si	12.41942177760165	14.564366118909788	4.241174819659308	14	0.8307349275821889	-0.3189008777317986	-0.5802120816186644
Si	10.985781237895312	10.470783272688719	5.608050830568451	14	-0.27214301349011766	0.864644721428558	-0.46543742590619014
Si	12.31376174640965	11.797586353196834	7.003044597527389	14	-0.49360722712532856	0.07871798892378164	0.259195698429448
Si	13.66025484725225	13.111235834688953	5.695892774291824	14	0.12244811954045623	1.0569500296279695	-0.7971128404211445
Si	15.03419219594356	14.66224769567386	6.772614345610321	14	0.0006216932664118055	0.12474797324932867	0.7665465119330961
Si	13.479575370198864	10.48561660438849	8.49413361014631	14	0.29063568850528276	-1.0087921985394679	-1.0729070805764047
Si	14.818349776334017	11.887989889262961	9.575837850050803	14	1.2045669562578873	1.0787033804101462	0.45428885612749603
Si	11.036623839003445	13.211782371960933	8.397070903065577	14	0.574264600792098	0.36148378115462315	0.4556371437573818
Si	12.328494940199427	14.750887512422025	9.765172795808356	14	-0.7191646404302153	0.32572099170402347	-1.3803878798077014
Si	10.752592348070664	10.644968321740715	11.218745624986262	14	-0.6578131823913738	-0.15566242939772518	-0.6123295579463582
Si	12.15568597984606	11.902072186637778	12.415091620558195	14	1.140736438469359	0.9757524667334369	0.2614083916679674
Si	13.547174919955204	13.337620192016745	10.986667942937034	14	0.4643107675549013	-1.4524163669095218	0.6562887740470581
Si	14.9351719542352	14.675570883085816	12.219397917516016	14	0.7163395099044365	0.22209336310705113	0.97045701821606
Si	13.363605979660214	10.445186730792164	13.779509407289742	14	1.291815101302324	0.5460922284676394	-0.29199503188804504
Si	14.878511663581925	11.808310800331688	15.074815884849553	14	0.027161927933640348	0.16603658225399062	0.31939658683752314
Si	11.123349729568657	13.402950487522412	13.849680240154315	14	-0.7396653487004159	-0.3799193776316809	0.4175289920337429
H	14.155456193704042	0.7418846272119343	13.709668060451598	1	-0.5331531409439941	0.5938787919479116	-1.3908653910978368
H	13.890843381672212	-0.43425612232731736	15.440572831358164	1	-0.1895945918603794	-1.0476793951751115	0.6565574545530134
H	14.540728726768439	13.901685733120447	2.11522922408118	1	-0.7530078426487923	-0.5620474796423502	0.8847805898538296
H	1.955065097555939	14.557372616486006	14.302499023764895	1	1.9690231595657033	-2.364723210320857	-2.0947268126625307
