67
config_type=vacancy dft_energy=-6796.4442131785 dft_virial="-11.34412772003101 -2.0034381174488183 2.2510540645492347 -2.0034381174488187 -6.7496078977563085 -5.157283338412008 2.2510540645492343 -5.157283338412008 -3.0863135990267136" pbc="T T T" Lattice="10.878005244446 -0.010529930136484 0.0172416727957925 -0.0108671489734995 10.838180787597167 -0.0519208228733865 0.019776253086908998 -0.05501018254152849 10.945177061174086" Properties=species:S:1:pos:R:3:Z:I:1:dft_force:R:3
Si	6.991460245599357	8.770790000098142	10.736874809944212	14	-0.8084084774241511	0.26727154024003313	-1.3109469531000781
Si	0.12337858223967099	-0.7527268343535984	0.9797012189298312	14	-0.31233093230722425	-1.3316068127895957	-0.20630034867804153
Si	2.8324076167577896	1.8212645485857129	1.103212513098908	14	0.28962884366191277	1.0624133713227522	-2.4893004621769275
Si	3.70223314836367	3.383852878507636	2.3889061047366043	14	2.558952990852399	0.689920374297787	1.348519029364466
Si	2.6395260566038234	-0.5193811893631729	3.867314822715158	14	1.2721021797022167	-1.4226151993647493	-0.3458239499811972
Si	4.02900799165599	0.6993048437541429	5.2616755528770485	14	1.660498234463894	0.5450241913176499	-1.1141085291107136
Si	1.4841903893293198	0.5313415800502227	2.1837106180180728	14	-0.8690294844415384	0.06494509194481242	1.8542101943839584
Si	0.4869265958071812	2.1978759847781237	3.5177254933946895	14	-1.3583848746989382	-1.4313477014741003	0.550183371253059
Si	0.3237561907996812	-0.6586199349695729	6.409304138021699	14	-1.1811166759644127	-0.2098068221136595	1.4109369818901047
Si	1.5204370630976856	0.9612629631639836	7.657381512291666	14	0.656913295529322	-1.9500471167503504	0.2520526536290126
Si	2.7537942912305757	2.324458145969442	6.236971170871676	14	2.062270978874705	-1.1296493181078167	2.068449344959021
Si	4.313462958705565	3.181132142931718	7.903662219188385	14	0.17779398977249578	-0.8485205486343131	-0.3148426450944769
Si	2.926797344843828	-0.7927253396344369	9.04575823980058	14	-1.1678618567074532	1.494525158511311	1.11852851626658
Si	4.1679149574388745	0.6042156585319722	10.569011624088695	14	0.6669709453206771	-1.1643168166920332	0.06638388248196729
Si	0.2122716432823569	1.856119922700715	9.248412619411795	14	-1.127539983303167	1.039716939109145	0.44118418942123333
Si	1.6333673004033764	3.2278967810068675	10.560113398002287	14	-0.15400020980824944	0.22219774998304914	0.010614808314231344
Si	0.33447431080327383	4.665097357102127	1.0635577534712857	14	-0.2281539725677042	0.665576892016093	0.48704602345884274
Si	1.9230589496509918	6.162751480449965	2.5599424110681657	14	-1.0555366930334842	-1.1035898801354558	-1.260229072444305
Si	3.028524302141703	7.597932006931233	1.0044400279343684	14	0.7904547060840891	-0.6107853520910773	0.8360000370567882
Si	4.277219548345299	9.049589480910157	2.477382537345171	14	-0.15360374536788257	-1.22996176350499	0.6085842288264985
Si	2.519896042468525	4.532406095947328	4.278964383876179	14	1.1933340542246924	2.197708065382018	-1.27646431698838
Si	4.345484606786936	5.94221580005533	5.258331647377095	14	-0.9776959652449367	-0.26548745025838233	-0.46751462189433785
Si	0.34088255650926835	7.368532910136588	3.613168214494376	14	-1.9770619774596778	0.1365935696803149	1.0032584085589134
Si	1.5102084543091157	8.697227342507261	5.124289335268833	14	-0.800001991469395	0.9627609286612607	-1.661382180472961
Si	0.4010206409788326	4.294241484995681	6.079707534525449	14	-2.3167857229582918	2.93839260023134	2.349069035579135
Si	1.5101018496445107	5.970429050883826	7.715209103826323	14	1.189908056385595	-0.728883675650907	-0.9946768303318549
Si	2.9391689249514967	7.482727174179738	6.234690048609672	14	0.7051559730933885	-1.0221511475618932	2.4406253246980127
Si	4.318157915158981	8.953387473525835	7.625912467981919	14	-0.3448723839022104	-1.6753180855292273	0.15360117426256245
Si	3.02344861474327	4.607391599469874	9.097122107691542	14	-1.0960745392846627	0.8181632510087931	0.9705410933600289
Si	4.298082516329558	6.0895260416961	10.541327045372423	14	-0.8596048407800038	-0.6838183700414795	0.12715889870803151
Si	0.39956080975536545	7.354351226336036	9.1984726852552	14	-1.2871881401681857	-0.08034652703356344	-0.05545822753453004
Si	1.6104016097999208	8.71047460378847	10.63091086112964	14	0.07458802244802779	0.6594082961319936	-1.2618262430691811
Si	5.652048781027792	-0.5104492413930624	1.1127503671729466	14	-0.25872929992437316	-0.7537629762813198	-0.29990683717920463
Si	7.022956484976604	0.632644294295079	2.5771079376749544	14	-0.08826038920897922	0.7402484753870254	-0.528391711001612
Si	8.24030887198366	1.9640571456131763	1.0228924251353164	14	1.268682095405356	-0.22602638291528165	0.8097583077172288
Si	9.676597869416277	3.3461441979104025	2.555335566633454	14	-0.0928318144682025	0.3634051681603698	-2.0611420065286286
Si	8.520244018814527	-0.5800120484558597	3.907063133374985	14	0.015056906975851181	-0.6435566605016847	0.2421299868669651
Si	10.014153925268792	0.9318988170788339	5.191939785184943	14	0.060659316486657594	-0.9986910970682022	-1.14891383894009
Si	5.512813298829491	2.113751850772457	3.5885447125760446	14	-0.5578254675961352	0.04528950599334438	1.5764878823491195
Si	7.034122779692618	3.4035921463027434	5.166198022090961	14	-1.147193255259847	0.20072105013332023	-0.40199205969462015
Si	5.72968090851956	-0.5946212387175313	6.480867414249888	14	-0.5291869538771337	-1.0854874989078889	-2.0165042757339413
Si	7.176771786763675	0.5420977731483171	7.685062827599838	14	0.4569568921182137	0.8407056740137232	1.6079651534520962
Si	8.509119060601114	2.065800419951553	6.498523539874399	14	-0.5786547631262507	0.5267976257031202	0.00860651794866368
Si	9.812132646829006	3.4483867736881018	7.84501986343139	14	0.2665315761288945	-0.678896246016588	0.6910665730495089
Si	8.380670229976511	-0.7851411792096884	9.229459832968825	14	-0.32213404267188483	-1.4631833846587057	-0.4403388099919686
Si	9.66795201355628	0.41761724677349543	10.650932957626761	14	-0.04457653848806732	2.050141789526907	-0.5448557839191801
Si	5.728783471292019	1.621832240572046	9.258888159413278	14	0.258605629758474	1.8759928557667849	-0.9654374492995349
Si	7.003564226242813	3.241743421575804	10.546655102997269	14	-1.4650451220210252	-0.720098208771961	0.6613772485861631
Si	5.3677102088671225	4.5549801775787655	0.9913537614527667	14	0.24700120300651768	0.11375341267931145	-0.4641950678154946
Si	6.833576561714099	5.955470675955439	2.190144970988868	14	-0.8929924431358507	0.5301963698258237	0.563101632823611
Si	8.27015056345413	7.436609778711118	1.1460393053998768	14	0.46127300661914633	-0.3324750282695204	-1.2105360343691431
Si	9.678782177237977	8.772328153116012	2.3783783502055202	14	0.5187618931355293	0.09351392870963779	0.9960009495717311
Si	8.193839028440223	4.8125033253805025	3.567543593648879	14	0.5422162871975161	-1.2184722651608442	1.3808761327079975
Si	9.66099986650026	5.750290418474707	5.096341508299149	14	1.270992747756573	0.7892930807004462	-0.8917791385352727
Si	5.62308712194166	7.209638657542985	3.8723023980948867	14	0.25879306333631286	1.5983085960906842	-1.7586949172931174
Si	7.08987593147828	8.612867155315683	5.101881687450503	14	0.17726588473973737	0.6160044387804458	0.4339496132714007
Si	5.534776035343501	4.723337225860105	6.73155807329261	14	1.9705902482583333	-0.6809659857993072	-0.20095527782798572
Si	7.012889958790342	6.10560485340554	8.034663034947307	14	-0.8681753632541852	-0.6441976370579976	0.7162040126540646
Si	8.408160092009474	7.060079927721211	6.512237468513929	14	0.15414830547468994	1.7717031675498747	-0.06375415596051982
Si	9.742090118775486	8.553182684572041	7.848097257269831	14	0.4347597685577793	0.9806360241785264	-0.27551347545429977
Si	8.403689222912268	4.62382938607033	9.43736177280508	14	0.6529910743634361	1.4529627267900531	-1.3034910047821804
Si	9.843594076519853	6.118883660965049	10.666470043591575	14	-0.20107354867271252	-0.6583343454397678	0.5108709137974629
Si	5.386628185623692	7.56131548024485	9.202703149955694	14	2.2528654735940905	0.1753061882647205	-0.022946600761257575
H	1.5530657050856855	3.1222428559618116	4.22764076468512	1	-0.6086922152499448	-1.6023076933056426	-3.258221646983712
H	1.980496020016332	3.400303718740492	5.309603052038551	1	8.691354911138882	-0.15058578194309277	2.957052911313379
H	1.307995722594121	3.325384571182649	5.218461502814862	1	-9.304939939813067	-1.3085401414098874	0.6234824986040967
H	3.517715703170389	5.222913879266167	3.4396256107418997	1	1.7774845549727594	1.524236080259346	-1.2594328011266553
