222
config_type=divacancy dft_energy=-23015.464257487743 dft_virial="-59.50325882381334 -3.9713490627295145 0.6855304929711662 -3.971349062729514 -48.58204890130719 2.7106033285296682 0.6855304929711662 2.7106033285296682 -43.23963885263533" pbc="T T T" Lattice="16.249967316 0.0 0.0 0.0 16.249967316 0.0 0.0 0.0 16.249967316" Properties=species:S:1:pos:R:3:Z:I:1:dft_force:R:3
Si	1.413860906263212	1.3641847561782	1.313094858936696	14	0.46354894904854144	0.3930582400387016	-0.8271176395072727
Si	2.93043785593086	2.837439292981392	-0.16149217518640802	14	-0.2109334804649484	-1.625756945156989	1.3169401996013432
Si	4.1900540724306	3.9487095578533675	1.502163228658356	14	0.31546305280822867	0.06607714961727361	-1.2899628770296896
Si	2.87128797490062	0.26463071774106	2.781133156231452	14	-0.10226854232474202	-0.7412303805087901	-0.29270979916704615
Si	4.06663557066558	1.6961390885094478	4.317860065370939	14	0.1460007298256727	-0.9027667571209255	-1.3115424210922244
Si	0.152847192574296	2.65101966793224	2.766946934764584	14	0.19448457706876907	2.0154334103681	-1.5052821489497463
Si	1.4958907412743798	4.128742945747332	4.111550480327003	14	-0.7493069936509712	-1.2871994530315944	0.6631423123884448
Si	0.21500331755799598	0.181658384625564	5.385385418228244	14	-1.0904366195386421	0.11808752491748507	0.304600132830603
Si	1.552099378220424	1.3699859945100121	6.939727291938276	14	-1.0129864426482256	0.36676406015061125	-0.7580238120178693
Si	2.74608197673084	2.902796661526344	5.745387194146908	14	0.27611537120974644	0.8098773498935518	-0.4717590025568382
Si	4.17291035691222	4.2822726369489	7.049674570798332	14	0.1292872596920501	-1.0489155826130387	-0.9755992288563561
Si	3.001823962350048	0.10414604052824399	8.083611241213465	14	-0.06425295039262856	-0.9089183837099117	1.7041476323735159
Si	4.249967701924692	1.594723042490292	9.5517307883448	14	-0.4284525900969241	-1.2984932902608768	-0.5874908807800038
Si	0.146769704798112	2.790834386719104	8.127031153881815	14	-1.4489906261809564	0.09323933466144597	0.002943144259973506
Si	1.401917180285952	4.1527928973750114	9.522383347372104	14	-0.10854743862707564	-0.31890576283190686	1.057724446550398
Si	0.038967421623768	-0.011569976728992	10.526127578514107	14	0.6494889718068624	-0.1172424025987524	1.6801453357678053
Si	1.3504535337961798	1.22264754085584	12.180959250106284	14	-0.8801412874141544	0.9451213463913208	-0.8267492001148954
Si	2.7035395622975518	2.6282047138205757	10.876688123422177	14	-0.14144447408783828	1.5318460377859202	0.6952556749476262
Si	3.847001012422524	4.206157790040756	12.442014975037823	14	0.5338247136536168	-0.7775061054707593	-1.8112215705416146
Si	2.6682771332218316	0.30111189436548	13.804330984974683	14	-0.09385974237519772	-1.5128216581905487	-1.420458556222209
Si	4.3212075586380365	1.376827230750048	14.795936490531636	14	0.3423593855622977	1.164575726997772	1.1799846182919513
Si	-0.119128510393596	2.728109512879344	13.44473545823892	14	0.30717997990883955	-0.5417676293191502	-0.14520291584483075
Si	1.4087909164606198	3.960637033863312	14.79137024971584	14	-1.1372232801599085	-1.096008976098999	0.29630291885195315
Si	0.069696109818324	5.300024339917296	-0.22197455353655998	14	0.12289780586095012	0.9857252700492274	1.5146096048301796
Si	1.304368626488004	6.7874488482200395	1.364249756047464	14	0.4921864343254147	-0.7974617394130886	-1.3068995191051012
Si	2.807896852400904	8.341985721537863	0.26003197699063196	14	-0.6373944923808857	-2.4430758451786456	-0.8673508097780138
Si	4.144602913847748	9.622271896463555	1.436399610930504	14	0.8451583142071557	0.527472540849659	0.12887459728816636
Si	2.669154631456896	5.268889402539839	2.5758473191284237	14	0.39479065080341735	1.4795212163050548	0.2907385327180887
Si	3.957630789909852	6.692484039225335	4.014001926529056	14	-0.42426451664093484	-0.1389103926843003	1.0285843101834358
Si	-0.15127094574464398	8.071618765334255	2.5411048890068155	14	-0.7105506662761232	0.8345761589304902	0.3935472642705938
Si	1.201490083410408	9.342479959216668	3.927747100015728	14	0.18983036221823701	1.4273429478274378	0.4222117461533287
Si	0.02689369590798	5.408817871097916	5.333385522817044	14	0.0177398553774257	1.7726346790073642	0.31135236962237584
Si	1.37401598640438	6.920227331159076	6.810328802200968	14	-1.7781576703455741	-1.8373853953899737	0.7185370336215671
Si	2.537822395608984	8.162082333382429	5.45844527128098	14	1.902471641016862	0.8901328597987819	-1.3719487408153794
Si	3.9792107465054998	9.539543312857798	6.863206195847232	14	1.7321698521472777	-1.942931325666308	-1.3159716642272434
Si	2.6779296138075357	5.506496424634392	8.172563562301248	14	-1.009642463068841	0.08123535814273863	-0.4624217764761885
Si	3.8067010934788437	6.84237373774812	9.512535867178608	14	2.6521995246087418	-1.5286699513839415	0.5504024294263355
Si	-0.038609922342816	8.0392650804081	8.354953195456032	14	1.1460532271608932	1.5573447176879571	-0.9592847942684206
Si	1.557250617859596	9.664148062236887	9.533969574068411	14	-2.111298872003545	-0.27820567983502686	-0.3306140622387972
Si	0.219813307883532	5.644686146689656	11.02934031638868	14	-0.12030690302983688	-1.4785981894951217	0.019780284559495216
Si	1.555885620605052	7.070718278472552	12.281172798544056	14	-0.6826423464680438	-1.2055141514578298	0.3126680042146956
Si	2.791224385934688	8.220013466863968	10.787687052432442	14	-1.450770345283563	0.8306194849533142	0.44457830555436084
Si	4.061256831483984	9.358437427120979	12.146346819723204	14	1.5713981222573543	1.1095625577941597	0.8867850235614171
Si	2.5595648518777923	5.508836419927896	13.766176061716715	14	0.9343846676849145	1.9024783258906943	-0.7735170355665496
Si	4.04412936593292	6.822077528570436	15.045909737753663	14	0.6529285965041564	0.14702608662734776	0.04292331776721211
Si	0.0109687279383	8.211579733826964	13.513196570541227	14	0.571070259542346	-0.6175121349401808	1.480152422661151
Si	1.500213232580436	9.38045613283416	15.000767328549815	14	-1.6093779758255178	0.6810230643374146	-0.617673600354286
Si	0.08610857680748399	10.9756341744093	-0.115846016995764	14	-0.48567279610735165	0.5049833397248558	0.41665044534584833
Si	1.37141599163382	12.319847720756135	1.385537213231424	14	-0.21899363853308065	-0.22229056688510654	-0.10263698171711923
Si	2.7084308024596675	13.683837477326545	-0.019646210485044	14	-0.15924140800337128	0.267617096795061	0.19577450060788734
Si	4.1704241119128715	14.941129948500096	1.41602215191624	14	-0.4394186113978876	0.5746618365640608	-0.7164230708273414
Si	2.6798958598527722	10.882018112701823	2.657747154401064	14	-0.027038257767741228	0.04302770464321012	1.462128460145849
Si	4.123494206304263	12.218870423854511	4.150582901820036	14	-1.4813220184712865	0.24774682354936062	-0.8842478568314949
Si	-0.024082451562312	13.541179014259379	2.9284878598529396	14	-0.052652637409184445	-0.4146850924391272	-1.774456307126689
Si	1.329588575762436	15.064905949546068	3.935855833706412	14	1.0768871516119938	0.29523153926504747	0.27113693997834376
Si	-0.17354965093488	10.835169456929794	5.386084166822832	14	0.1577887334974876	-0.7714431820153181	-0.3812864343304036
Si	1.34899103673774	12.0444757746192	6.6498278750208355	14	0.5282307598085706	1.3872653294285655	-0.2562936918545969
Si	2.695658328149292	13.722951148656156	5.275649388943296	14	0.14384922889377277	-0.9328237496450527	1.0749521377480502
Si	4.209570283177116	14.921386238211156	6.734522704671828	14	0.25935587829089324	0.4561994444908981	-1.09911512843627
Si	2.865892985751708	10.948642978697425	8.099016210229031	14	-1.3367284545873308	1.066975540602823	0.9450305863735196
Si	4.1140854752283	12.336113938039452	9.544548302791128	14	0.3355811806067913	-1.3053673974448246	0.2712431266280659
Si	0.140220967969764	13.559443977522562	7.993391422675032	14	-1.1061599570134757	-0.01402486530034374	-0.1935826333224611
Si	1.4756270320313278	14.798893984583149	9.368983655909064	14	0.9188850163729337	0.8134856390998475	0.07151452314832277
Si	-0.015989967838944002	10.976414172840467	10.866060644797512	14	0.9015164286037375	-0.0314567022604157	-1.1092666235718105
Si	1.2390600078449998	12.224704162120956	12.282521545831283	14	1.326575159678066	0.08040591956645886	0.1196695260209722
Si	2.768458181724972	13.580243935687044	10.952022971899153	14	-0.599423894791875	0.7847710206633698	0.5693404198829504
Si	4.006039442544216	15.141150796192738	12.350706408689218	14	0.6624100615932664	-0.9344175778330123	-0.9316472118505529
Si	2.6530996637486877	10.68362226174078	13.503722839596	14	0.4165465726909144	1.1599261401368162	0.10632060430929538
Si	3.9956719633966076	12.220040421501263	14.83557016081536	14	-0.14458173679948297	-0.8792575985156196	0.41542608499239386
Si	-0.023334953065775998	13.631756332078764	13.641571312337627	14	-0.47237555361260974	0.3003477817416101	0.8692423719620466
Si	1.2559112239516919	15.13140081580314	14.921483738015052	14	1.0998640914160291	-1.4533080262345492	0.14222300477877914
Si	5.595318745983648	-0.21344332069566	-0.256960733167908	14	-1.4788054205839254	-0.26333106422637415	0.4920136560479008
Si	6.671732830962804	1.0533391313904361	1.272177441235008	14	0.08873192992469438	0.6872096579587548	1.1864650892513846
Si	7.918804072694592	2.5040712134936522	0.09881605124859599	14	1.1913046807954994	1.804477304176334	-0.7288448519605727
Si	9.50062464113598	3.928234599035208	1.336998560858532	14	-0.8998979178047043	1.1771597448767048	-0.21894350197933773
Si	8.256283393913279	-0.16581466649246399	2.4305888612907003	14	0.21510689862061275	-1.3588031935345262	0.7333504569236002
Si	9.489720913066943	1.191268853968644	3.8823934412367715	14	0.10320056800329569	0.278555864379631	0.7963435657093563
Si	5.617694950977779	2.6356309488839877	2.805280607663028	14	-0.4489931504995871	-0.11445866686862809	0.024379220645644083
Si	6.87146117924376	4.01349817754226	4.2960363592655515	14	0.4806105468425121	-0.716188843132676	-0.6494064393260857
Si	5.595952494708971	0.27397444894775996	5.25475193097492	14	-0.8619260346630334	-1.454419257953917	1.2425807484162767
Si	6.922388576812104	1.35142853183514	6.765235142899067	14	0.0813618565244899	0.20606946342029228	0.7621977443945978
Si	8.409081836585628	2.573393574063708	5.45032028762298	14	-0.6630350972965945	0.7274641684036532	-0.12056992710408804
Si	9.599700691861633	4.197886556676912	6.737610198461868	14	-0.3966865838664946	-0.389452779048258	0.11924992163272403
Si	8.091232475884668	-0.18110588573682	8.15268985227378	14	0.5013706796395156	1.0109056471126296	-0.20031455838220483
Si	9.346379951372507	1.39197220028856	9.429254784684106	14	0.5015020631213752	-0.20388428100869843	-0.08005290680600254
Si	5.582790021183012	2.8013968654745036	8.130557396789387	14	0.4140952808786852	0.025733936038830108	-0.06245343377905691
Si	6.779340114529355	3.949343306578692	9.748875391822512	14	-0.25781964286210474	1.3903246876490096	0.01620079173278506
Si	5.5430751010627075	0.09823105242522	10.756519615120355	14	-0.7404235676593276	-1.067760756167596	0.6352023679849276
Si	6.760863901691064	1.2974948903133359	12.312616485300515	14	-1.0811068496634209	0.11537500880472885	0.32641133348248313
Si	8.058423791873663	2.511399948753168	11.013122849007312	14	1.7110736758849308	1.4279137332085108	-0.5833148915190192
Si	9.6179494051575	3.977309500329528	12.247665365938465	14	-1.101477717114954	0.3222852236647095	-1.696860605675152
Si	8.045797567269132	-0.164758418616924	13.504567837896431	14	1.1469690548759297	0.05451694587682382	-0.6547054873909107
Si	9.201283993207944	1.23832875931578	14.883540064332191	14	1.996337039823764	0.13130712003155845	0.35215066884248564
Si	5.466147755788763	2.977026512225832	13.51355406982218	14	-0.41708290526069725	-1.9235649890633568	-0.6721854040204696
Si	6.85001122238664	4.10628549091662	14.821172689773384	14	1.068573739669827	-0.341044265191042	1.1505925136036146
Si	5.479911478105416	5.264550661266468	-0.025788698130492	14	-0.5687400667906958	1.1601590822788217	0.8531598510739885
Si	6.845282481897684	6.567505540597979	1.454372074782	14	-0.7844663446829322	0.9312726018054074	-0.7600997224533568
Si	8.124886158196103	7.97946520068522	-0.03485617989282	14	-0.8894743997262918	0.2885762331438441	-0.22746568767350056
Si	9.619785651464207	9.286141322532096	1.111969013466564	14	-0.48292788406756154	1.218175559606899	0.8498557236270663
Si	8.155273597077024	5.397231644401607	2.910352896328284	14	0.6612990869844305	-0.9688763026652332	-0.37348878611545855
Si	9.352083689900423	6.796467580080419	4.356242488171332	14	-0.6838343108944643	1.0643136752648736	-1.3612763397419767
Si	5.26913315204958	8.0027026539471	2.6612246474066876	14	0.7803227513489815	-0.37210655989534697	-0.5696219559155066
Si	6.521453133224435	9.530735830572528	3.7868598833860077	14	2.2281337544090536	0.35727770996139285	1.4826767338644726
Si	5.4040078807723795	5.35712672506572	5.448500291283588	14	-0.020024539564909283	1.3712604559211756	0.11933502521882092
Si	6.675584073216696	6.798157576681284	6.9714797280737395	14	1.3291614345196032	-0.898017411373548	-1.6118470082644558
Si	7.9866801861735235	8.315985773832264	5.584610017522404	14	-0.09077647287527614	0.08624824218543135	-0.3031058064185329
Si	9.710070469871903	9.508392125513028	6.902287367242212	14	-0.772361066614611	-1.3524047408348057	-0.20999528413362634
Si	8.192014773178501	5.3984341419829915	8.266049624270197	14	-1.4434540079845495	-1.0420607587189918	-1.0014264960183077
Si	8.119084919864292	7.918934072433119	10.77811582168332	14	0.18583126500327868	2.056653370860714	-0.1972634276987851
Si	5.391154156625424	7.947680264615124	8.33626573304263	14	-0.9952658705607008	2.1746555350815697	-0.7757017037570794
Si	6.810718801416551	9.555565780631376	9.254713885742952	14	-0.7715833072552662	-2.106938277380574	1.818833070731381
Si	5.258359423719072	5.477522732909964	11.029129066813573	14	-0.041945012192895766	-0.45151437637652425	-1.032602176467231
Si	6.812311298213519	6.732540208659276	12.239182882999511	14	0.33256938783476986	-1.4521962802941173	-1.0474045440163877
Si	9.436047271022195	9.439866013341456	12.20440795294327	14	0.7333939086035108	-0.545026505312438	-1.0059786379876297
Si	8.227910950979544	5.339544260429808	13.399999298217972	14	0.47013072155758856	0.9181257689718941	1.4325183257263638
Si	9.620078150875896	6.874857422412803	14.817922696310182	14	-0.186635506747421	-0.24904677439922746	-1.1521482894328363
Si	5.54067010589994	8.03374009152066	13.428599240694131	14	-2.2726426728272013	0.6203460072240479	1.834664908850725
Si	6.691151541905424	9.431789779585404	14.832287667417527	14	1.2668928632130647	-0.15584163543853946	0.5712836612839183
Si	5.48420146947684	10.855806915421114	-0.05427489083544	14	-0.808754291089711	0.29040531746859743	-0.08061443620792287
Si	6.826903768863287	12.238890383587822	1.2270350320311598	14	0.3341853275284829	-0.6658759115648262	1.3896631422501358
Si	8.100966206306952	13.554455237556551	-0.115992266701608	14	1.6633531898113862	-1.0962046372138623	-0.023898681061308408
Si	9.802484033997995	14.414939756840699	1.252839980128968	14	-0.4460777741770712	1.989247988235052	0.37108557397271613
Si	8.410186834363115	10.784762058315565	2.610784748857824	14	-1.860380075820718	-0.051378140501987045	-0.39115227966487587
Si	9.44740599817608	12.230667900125928	4.186544079490344	14	0.9255035556880591	-2.29401087203242	-1.1297431634520017
Si	5.41619535625938	13.522166552499659	2.739565739837124	14	1.10054054922576	-0.06014355275943588	-0.04473594701791651
Si	6.81710503857174	14.90698876716918	4.163274126293832	14	0.11788466470772539	0.38463092813085226	-2.1291654828732542
Si	5.398872891100524	10.8574156621854	5.4173328539715	14	0.2855744676825712	-0.8917112613548208	0.3771472118754972
Si	6.837189998174315	12.111116890582116	6.7938838352771755	14	0.18994657617870772	0.674640809601211	-1.8675519170007389
Si	8.258233389991199	13.619292607147392	5.3516179861455955	14	-1.1537233485519591	0.3908571167741228	2.6848034540630077
Si	9.633273124336487	14.891258798807291	6.871477429211075	14	-1.1936323024418294	-0.246608338113599	-0.5866362453715864
Si	8.141184875414051	10.793439540862309	8.034113840768928	14	1.8391936537616336	0.48982667386258283	-0.09504862147523419
Si	9.378457386854292	12.213377934901704	9.447129748731706	14	0.16502613786317244	-0.8318713561336943	1.4003257731233216
Si	5.468552750951532	13.412853022364928	8.032212594592956	14	0.06689039023003644	1.2916520932250268	0.8672729052868133
Si	6.857664956992476	14.731196620744692	9.518548355085528	14	-0.7029545927182776	-0.03428080434406635	0.5849722260083866
Si	5.489710208396963	10.6770410249778	10.798022031645418	14	-1.0709540689752202	0.41002907781487097	-1.0896861138956908
Si	6.809727553410276	11.949364715918652	12.077593208009207	14	0.16575890287941464	0.5847565102720261	0.7178194381267138
Si	8.196337264484557	13.4476604523558	11.05339026801636	14	0.2893627342612774	0.6168963552160052	-1.0936337890042462
Si	9.701474237161738	14.862398856854075	12.252735355741056	14	-0.1567379227531431	0.6109126218044245	0.222264084500309
Si	8.172872311680253	10.75479711858486	13.507151582699676	14	-0.7946453506453983	-0.19824019060990933	0.4669062983755907
Si	9.533953324101095	12.19137547915584	14.633030568188735	14	-0.13188073362848346	-0.10160056916256754	2.0844840432881244
Si	5.38824541247586	13.27240455485274	13.335503177940769	14	-0.4913495395437066	1.489643657950478	0.16774045374965277
Si	6.820940030858315	14.606868120809974	14.633859316521852	14	-0.9752405596641955	0.10500599815910368	0.23401377870285364
Si	10.993476638522267	-0.099336050202708	-0.086953575107916	14	-1.238920779993046	0.052557249401806956	0.8119154650808331
Si	12.082256948628899	1.3105111141334518	1.50279697738368	14	2.0026329054212106	-1.379270734546097	-1.3200787478656482
Si	13.670805003539112	2.674874619952128	0.279060688717668	14	-0.8888730181919092	-0.7501518588591719	-1.037204712100828
Si	14.971354887707855	4.222911506343552	1.33647856190442	14	0.4777234526785178	-0.32144704333034124	1.3202787798595554
Si	13.438511720756892	-0.47384904693456	2.609517251407176	14	-12.854097580403458	-11.73161984636513	-7.0650896584601
Si	15.02564602851061	1.3361535625581	3.8565234932697	14	-0.4887090143799145	0.5454345397267454	2.7265263227562424
Si	10.83864694993542	2.6574871549240076	2.695690828083924	14	-0.32797816506458144	0.9121302084758408	1.0424484814012704
Si	12.329402701537944	4.01601692247624	3.9682420185672	14	-2.628334267916595	1.0695371328332863	-0.3592137522674644
Si	10.804392018833292	0.005378739181596	5.484266469346104	14	0.6580872622185016	0.4396278993709477	-0.35808349436872733
Si	12.261396588320483	1.1841676182515521	6.997349676040812	14	-1.558303225751308	2.517708347748712	-2.4056590636755946
Si	13.45354294052419	2.67368837233806	5.251875686759988	14	1.8945467230885695	-1.5967525631509305	2.2952434599228995
Si	14.945631189446628	4.202599047198552	6.735936451828319	14	-0.39521436896017775	-1.6535130555301158	0.14402200717128674
Si	13.519664057532996	-0.07223110471961999	8.248710909144023	14	1.2532724327795806	-0.1286136300981713	1.5127139288776346
Si	14.906436268280435	1.4781620269326239	9.511024620218219	14	-0.799064566469669	0.7479746468740706	-0.6871860037898094
Si	10.791473294817072	2.799918118448748	8.106393695390496	14	0.5585296933433236	-0.7734283324330045	0.7614523809622867
Si	11.949640965363024	4.13878542554862	9.719885450130768	14	0.3991378756787237	0.44065505594634685	-2.0430056867108357
Si	10.861055654864185	0.339526817100504	10.94297174010414	14	-0.11730616601069208	-0.6016923810158415	0.2778806921225601
Si	12.377015105773824	1.5824218172320799	12.404900049688079	14	-1.598599388102393	-0.4352187108574258	-0.7614834913366605
Si	13.482890381496887	2.9388715889678636	10.912860550667592	14	1.254830265493058	-0.8089646075048992	-0.2569300404213335
Si	14.842070147741758	4.301496348283727	12.203871704021845	14	1.0890744479400276	-0.423503212355639	-0.11754347903174174
Si	13.39744805334936	-0.098052302784744	13.524912796976064	14	1.7573548572002562	-0.03829070020136929	0.1554379719032762
Si	14.758561565704834	1.328646077658108	14.817727696702391	14	0.5370511937198706	0.2030998367755212	1.218437555239022
Si	10.830635716048633	2.7679056828362283	13.685413724156195	14	-0.16247303028026538	-1.4367701625942928	0.8837202660198006
Si	12.176523009029017	3.9226446102785038	15.132668313253788	14	0.7034667568980512	0.3119293256562171	-0.22843088061068414
Si	10.868270640352488	5.476905234151955	-0.08589732723237599	14	-0.5354738206059598	-0.5810790583326183	1.0791864910998021
Si	12.226540408427663	6.757841407770288	1.3330173188661119	14	-1.3435210577326302	0.9399770788667686	-0.6335301210847032
Si	13.644837555768143	8.122091163817752	0.016298717217948	14	-0.18502008127477196	-0.09243432158570761	-0.8455648059582711
Si	14.835716410521204	9.724922939998729	1.196696343052188	14	0.96958798461785	-0.8148825206202839	0.761874042234791
Si	13.425137997655824	5.5412713546906325	2.705180808996468	14	2.2986108365606968	-0.6819440342630916	0.5202161103046051
Si	14.79900773435436	6.922258577073575	4.140621671855327	14	0.24851841225593704	-0.8027379046405646	-0.22533089892618158
Si	10.6299161197614	7.93177154661276	2.67295712380884	14	1.3124672476758816	0.46161342096353397	0.7301738563005572
Si	12.169470523213871	9.416157311027412	4.002659449342488	14	0.034969603459334024	-0.248065897719591	-0.8087782023691884
Si	10.862046902870459	5.5138901597631715	5.3406492582072955	14	2.2327473457955276	-0.6674566271156531	0.9735683127639712
Si	12.22907540332896	6.907357357044804	6.962379746376779	14	-0.5732492713011714	-0.7776721988744408	-0.7750216463999002
Si	13.608502628849568	8.394343116230017	5.554710077660964	14	-1.135578286976078	-1.1752887515352333	-0.14662088042889243
Si	14.850585130615343	9.544044553804332	7.030288359790344	14	0.8941576680669417	0.7854050552353182	0.504292740835864
Si	13.544087758408944	5.421509095571712	8.239285928100744	14	-0.29360351537632967	-0.38424191989591383	0.2833635742177759
Si	14.991261097669955	6.6557428631238595	9.676676787037524	14	-0.6944465481033756	0.35598007310631413	-0.624324021375381
Si	10.447656486345144	7.514699885480304	8.442118020139056	14	1.3303899086415698	2.7707202807726716	-1.0115571652007553
Si	12.035018293641288	9.367829908229627	9.524560842992447	14	0.2784599621511895	-0.44295850920266755	0.46117041951687243
Si	10.545708789129888	5.744525945879159	10.715260948105032	14	-2.891248813081105	0.012853212605952262	-1.9518576891167985
Si	12.004029605969675	6.798271326452496	11.986918390385927	14	2.8049080111041484	1.0741980325576508	1.3120293884398604
Si	13.830607182124655	8.303684548574052	10.79655953458698	14	-1.712555918101996	-0.2068374525794205	0.8756691068202888
Si	15.109999608847968	9.728562932677512	12.352233905616924	14	-1.9143216083268924	-0.005148895514128543	-0.138383573204202
Si	13.33873692143665	5.319719300304287	13.57904143810566	14	-0.19802781731046512	1.061801448256557	0.05690010339806908
Si	14.949709931242944	6.642027890709156	14.761811559168036	14	-0.9383056032981403	1.0140593648983232	0.0193007734172876
Si	11.109030156106343	8.367465670289352	13.415339267364276	14	-2.189185108356259	-1.5530846532830036	-0.165661457987781
Si	12.308423993732987	9.554769532232893	14.819125193891567	14	1.0807679779822252	-0.5339262723137627	1.4820817800933903
Si	10.943199239646564	10.819975737489337	-0.111296026147284	14	-1.4443140427141392	0.0671325883511944	-0.33230045021828236
Si	12.23590038960168	12.287754035307037	1.1157390058838759	14	0.9736863264981661	0.33176411764849945	0.9386308481211392
Si	14.936303708207243	14.368789849663258	1.0712140954380358	14	-0.05392224921627358	0.8152350191596762	0.5005592388004769
Si	16.13690004341527	16.193807428955903	0.08750607399666	14	-0.5979671065174791	0.806688407964972	0.12826318844303514
Si	13.504015339007688	10.921131784031434	2.71081954765512	14	-0.5424980803406043	-0.7887971144841895	-1.1956238806228163
Si	14.654204275601483	12.297504015696635	4.056853090341348	14	1.0783907340032162	0.01043277405756486	1.6633513900376624
Si	11.092260189836232	13.273493302662912	2.985183995818464	14	-0.33403414653565816	1.143429414181682	-1.4303369999727502
Si	12.27265781567047	14.891128799068765	4.250536450780753	14	-0.9956517934692551	-0.4499076926619638	0.8330196117696725
Si	10.984051657478988	10.822673232063792	5.3418680057559955	14	-1.0844492865796134	0.1999908562223982	0.9802704130020012
Si	12.063179486999916	12.15798179632146	6.894796132309536	14	1.1910524553635928	0.7454575347656455	1.0608449970774618
Si	13.51688531312196	13.615945113880295	5.656012373908908	14	0.4929263984365534	-0.2750604466968897	0.49561217505398
Si	14.985866108521043	15.197408183040732	6.782638857894503	14	0.5236804176129726	-1.8518782018585842	-0.20544262794324017
Si	13.525189046420435	10.923780528703944	8.479509194933172	14	-0.7973624947477309	-0.3541427612445363	-1.6667516768235582
Si	14.914447502167224	12.42545625834282	9.594451952418563	14	0.8643390170059922	-0.6117086360115425	-1.1486981232037297
Si	10.76373460060866	13.637086321358412	8.389825625316169	14	1.3420020487094866	-0.3685764322907836	-0.7179189399026035
Si	12.14842681553965	15.018024793839407	9.79193780520991	14	0.3895270839920102	-0.5550684713613404	-0.6205527240917879
Si	10.872739381364388	10.86789689110422	10.951307973337247	14	-1.228541742036672	-0.4738377412081779	-1.1926465406620848
Si	12.254051603093652	12.21862667434477	12.154146804034884	14	0.39499916744488134	0.31893121677457636	1.2422323636453967
Si	13.6666287619389	13.615798864174451	10.997961629501484	14	-0.5090302594987689	1.444539528650716	0.46621569948659897
Si	15.114793349206188	15.109073360710957	12.229026653427011	14	-1.0823332669011314	-0.6251637443729413	-0.3872503702310191
Si	13.568413959480996	11.051521521775019	13.739396115579947	14	1.0458888774301602	0.7028854299851657	-0.6554063707011831
Si	14.615594353258667	12.705621944837976	15.398387778805018	14	1.3334027298557194	-0.528723126477379	-0.9504034251610333
Si	11.138832596163887	13.57579144464246	13.780687282529904	14	-0.6191373306130462	-0.02369762062527283	-1.5586708938120895
Si	12.613695879731363	14.715255402807696	15.208734410259982	14	0.8402984109310118	-0.7324027475025937	0.6436541053933184
H	11.463411068330403	5.042397358089432	11.51692058570526	1	2.3844939817906674	-1.9490742104972063	2.326298041311244
H	7.139665264797608	8.8797946398282	11.687522492569018	1	0.20580515379338102	-0.16358786154708158	-0.32205613818068435
H	11.632961602308814	15.486418726745987	14.315415207017127	1	-1.1579052513551797	0.9992811657391762	-0.8394499461753628
H	9.454772108360423	6.5722992809562	9.271909601156743	1	-0.26400109427280477	0.144720833597303	-0.38113731022183506
H	7.169609079570801	4.342657515495156	7.221319725563776	1	0.607065476913887	0.5643753583992123	0.5251729442513186
H	14.194494325228575	0.27943768795939916	2.879700582980113	1	12.504763814549724	11.760033388368619	4.140668444538443
H	11.360144151033955	11.293043160995996	1.9460635858295279	1	-0.5173650116150929	-0.5109318489935503	0.27643881625902106
H	12.242317501694767	-1.429209000393174	1.7643012014131416	1	0.2701704614885001	0.19284112654813043	-0.09879497903722195
