222
config_type=divacancy dft_energy=-23014.02173158893 dft_virial="-2.664862901332125 -11.991883055994562 4.102592886093378 -11.991883055994562 2.9969582780938793 -9.922361866662166 4.102592886093378 -9.922361866662166 12.166030631613532" pbc="T T T" Lattice="16.3999889955 0.0 0.0 0.0 16.3999889955 0.0 0.0 0.0 16.3999889955" Properties=species:S:1:pos:R:3:Z:I:1:dft_force:R:3
Si	1.139110435649439	1.0400709021056145	1.024704112416831	14	2.4856394653115688	1.4453224302207013	1.6969698776512585
Si	2.870555673838347	2.4765131382434684	-0.0416395720595745	14	-1.4474932144425021	1.4633893301948497	1.0405756882860744
Si	4.025770898681367	4.170976401247524	1.5201477799708858	14	-0.7745485630209928	-0.599389184870053	-0.37776324871020467
Si	2.908341248483979	-0.2162666548836585	2.4322003679776274	14	-1.7370410682868305	0.9366107306710988	0.9817490556716183
Si	4.248351549328293	1.228227975850986	3.8108490428953394	14	-1.3366194397217566	0.03189970370707722	1.0984206728892978
Si	-0.012414791669593498	2.657290216940865	2.500571922099867	14	0.9005468647875098	0.8516452129298893	-1.6087300572848402
Si	1.361723886274356	3.91092177574588	3.9676985376483014	14	-0.756836475581025	-0.8294236638689133	0.969222373441325
Si	-0.06691195510164	0.1301011127013015	5.289012851037745	14	-1.0321869429580273	-0.27334269123249877	0.8317759681263168
Si	1.4052658570574084	1.2938771317999727	6.627973552586347	14	-0.007947800765641742	0.7805580074857751	1.2405452043343153
Si	2.8063333169319686	2.608483849690257	5.269365664221136	14	0.8507448118467734	0.270639173988363	0.24347981716004286
Si	4.155248811800839	4.220110768278042	6.776770652742519	14	-0.5984445607754306	-1.4043870910870275	-0.6256923636267638
Si	2.708523782562807	0.086559141918249	8.222954482343699	14	-0.09657714358806223	-0.24516003448675966	0.005020854469185168
Si	3.902934981105072	1.3842574711541729	9.855474986911752	14	-0.9879927278310658	0.8450063618827348	-2.0999890939212773
Si	0.019515986904645	2.7079497829479644	8.148039332612255	14	-0.09981982161783298	-1.35473673336018	-0.0067663778710337
Si	1.250597560840848	4.003171713845568	9.675435907719152	14	-0.34597924474253416	-0.3612348981596328	-0.8681475953167276
Si	-0.08680514175318149	-0.1788418799959275	10.989321026093636	14	-0.9316916919725914	-0.6090071756516628	0.4353256688387439
Si	1.0749700786880383	1.189688001711561	12.39222528473569	14	0.8222032287983416	1.2283797624015027	0.3117969137322295
Si	2.449617156290848	2.7435705590461903	11.161127310810492	14	-0.4685266089483481	-2.04558142002056	-1.0083666806089835
Si	3.8326938282373453	4.11756163708918	12.117771468895999	14	2.4618194600730567	0.9072507647992637	2.0470747179905024
Si	2.5816698676826144	-0.040475172840894004	13.658074835342354	14	0.7758300019125548	-1.2292634513000376	0.09649024022824121
Si	4.065770471841391	1.1179708498342393	15.011828326964897	14	0.3497518275787874	0.9290141428921892	-0.8201378598946666
Si	0.000623199581829	2.7145261785351598	13.878572687386852	14	-0.2690422604740191	-1.9177833445299401	0.6753836019282017
Si	1.4502018269050785	4.020834501993721	15.052877499420633	14	-0.3502218256313105	-0.3546973486620923	1.9357705402391638
Si	0.17608668184468348	5.656881004195806	0.0314387789043735	14	0.07193926974721124	-1.1511895242589532	0.6728816593411656
Si	1.4667002158345515	7.171698787743154	1.4602878201373108	14	-0.1999147515049218	-1.9852540332307338	-0.5611367941379538
Si	2.65581421793127	8.13421414188905	-0.2881642066399305	14	1.0802157045594576	0.4244154405232276	0.6270712474099593
Si	3.955136146077748	9.576921173823184	1.186834403626344	14	0.22507044595725062	-0.11662867975883306	-0.1635981459683622
Si	2.50675471795117	5.528616690262	3.054104350675983	14	0.9284626408010174	0.56975256806577	-3.307893344884717
Si	4.0488128832200445	6.8126866286426635	3.990232122528118	14	1.4465390772581952	0.7567194902889582	1.5140799571342294
Si	-0.10018753277350949	8.375113580243948	2.5729122735590173	14	-0.6739342698592342	-0.7534603571851385	0.8569450323263104
Si	1.2965175300282479	9.454560855927758	4.0534704800947665	14	-0.04142410625503376	-0.40307140970801825	0.9962279781715002
Si	0.1456155022910445	5.399089577175541	5.38838038436148	14	-1.4174233663917746	-1.0454407337728584	-0.44357017515833075
Si	1.387373469063318	6.608342765758733	6.841025809626887	14	0.07580132704860568	1.609021877738677	0.36925931786381494
Si	2.713181379437529	8.064727388515117	5.54418027981873	14	-0.08934025344344142	0.36161259353116254	-0.7144811149790335
Si	3.987296524497924	9.525851608091196	6.901935368756175	14	0.43149806434863947	-0.1623082224292439	-0.07722289118011554
Si	2.5362418981650796	5.209046504695687	8.161684123456512	14	1.9532468573212742	0.428295238451331	1.1797077102489715
Si	4.151132414562969	6.618658358836903	9.632615536451901	14	-1.012250849416131	-0.4555857216509788	-1.4428217731863253
Si	0.31484698873560896	8.163012522565147	8.354793993878523	14	-3.3243003392641786	-2.848602917577937	-3.837784781619572
Si	1.1361748376192444	9.507631220317196	9.65696952011022	14	3.135304557832861	3.8785900228240457	1.9831837792269507
Si	-0.21308505701853148	5.186955719518749	10.985417828712706	14	0.08001074067875209	2.0660124513365847	-0.09979539611729157
Si	1.208941588792278	6.786118646469953	12.166069436487746	14	0.7075905527210367	-0.5792296622758358	0.07212053267228168
Si	2.7311885673545877	8.075944980988037	10.674703637203962	14	-0.9591675518658219	0.03493129399006381	1.5969410251708973
Si	4.011125708508385	9.357358121151432	12.193293418220277	14	0.7106121156932745	0.9974600518409152	-0.009705151251962953
Si	2.6147814454645286	5.3037728411336955	13.711932399203576	14	0.543846110859958	1.7602627773173438	-2.086144205993344
Si	4.102342447301356	6.6716303232923675	14.864015226148457	14	-0.2589720122665951	0.026774462361894038	1.2601946196330152
Si	-0.016039189237599	8.213786888495214	13.569104895041768	14	-0.38505233229282454	0.41341033842139774	-0.7362918014098496
Si	1.4662246161536818	9.654411121826922	14.818751256520876	14	-1.4398362056885692	-0.5840674540462264	0.1764541867901666
Si	-0.047199168329048996	10.867977507515931	-0.1637210901420765	14	0.5085224661980395	0.25876426695672716	0.863777744714604
Si	1.3783862750937839	12.238114588144978	1.3796818742244283	14	-1.4071903672175852	-1.167736129657298	0.11457976592920706
Si	2.6053186518141254	13.369795828779456	-0.059991159745538994	14	0.9831783331190886	1.6415970108133573	-0.5059349058038426
Si	4.103539646498028	14.67372615383367	1.25066316079683	14	0.2493208542263553	-0.07507473268513183	-0.6131862502390316
Si	2.6024322537509175	10.762509178285871	2.731811766936417	14	0.40444206595418924	0.512472712411915	-0.5027732175916565
Si	3.8074378451842756	12.141190653181573	4.188983589164582	14	1.1711320455641496	1.1142116304340515	-0.9363276519753505
Si	0.101548731860136	13.749537573970258	2.5994474557537366	14	-0.7658589983704885	-0.007143559021499423	0.25567174147765304
Si	1.2663743502545188	15.20625019650655	4.019817702676001	14	1.739691620761371	-0.8525201600703358	-0.6270951586894367
Si	-0.0351123764393655	10.892265891218265	5.339492017165894	14	0.5685834864766988	-0.031265412024596685	1.0841579803468404
Si	1.4204850468452324	12.445722048839011	6.6301875511007395	14	1.0052823826669337	-2.487225065962504	-0.20281598674817686
Si	2.7683345424293955	13.880327486209369	5.44709234496537	14	-0.17302433229308908	0.23522322664545137	-0.5136348520166221
Si	4.208319176190278	15.101503466792291	6.949429736887143	14	-0.5505451257716039	-0.07799422277615996	-0.28431436896516665
Si	2.85538568401751	11.041030191396446	8.260756456978326	14	-1.5915882410048812	-0.21905148840278393	0.06772882767493674
Si	4.3003723144220185	12.239442987253613	9.737444266111138	14	-0.15282161512949355	-0.6426922548930509	-0.938908270385183
Si	0.06651835536574799	13.572893292499728	7.892363504172411	14	-1.26476115979213	2.949867957496225	1.6737417408574446
Si	1.360575887044671	15.104111065042575	9.624841941668034	14	0.7726832261112255	-1.5084842035154589	-1.3462284316347461
Si	-0.163737490131072	11.116552140720724	10.947173054375199	14	-0.43854983491020966	-1.001603645174866	-0.6858392588231159
Si	1.442379032154225	12.234785390378892	12.189701820630262	14	-0.6145345378689172	1.4098226648443526	-0.1802496524637692
Si	2.9645440107715575	13.706799202647986	10.909518679641533	14	-1.3231815577660027	0.41236415566662954	0.6017060078740384
Si	4.33320509239101	14.969188355576598	12.434816056157006	14	-1.3393378693767493	1.0299094578654402	-1.2496219774460342
Si	2.773369339051014	11.011985810885417	13.492221746630863	14	0.7731293128842712	-1.6891318630827872	-0.01620541972236133
Si	4.038152890372969	12.072523899257414	15.088596675452832	14	0.47654357244710177	0.5126727444058227	-0.8934423865668765
Si	0.056038762397623496	13.450549374593297	13.783698751047885	14	-1.0856322521374135	-0.7249295727790513	-1.545034265415088
Si	1.2165347836971945	14.872707220316071	15.066243490451967	14	1.8069843889740105	0.08555327241739531	-0.11931625614998384
Si	5.398663177461659	-0.194405469552657	-0.0768339484439175	14	-0.1944802061897248	0.8329648472263533	1.7722788380310557
Si	6.792153842420298	1.368579081674475	1.3947698641002884	14	-0.04301819155352557	-0.21659016927980615	-1.149452999725725
Si	8.171442116908834	2.802774519319945	0.0244851835702815	14	-0.928559314361055	-0.18527024982242238	-0.5531655963138988
Si	9.455200455498582	4.211320374176454	1.3644790844255998	14	0.6706545679128534	0.018408599871196214	0.3451534057137026
Si	8.196829299873869	-0.1049599295712	2.5784554698394966	14	-0.5224928240655963	1.33331222694845	1.405486495721923
Si	9.559963585201837	1.401018259907574	4.026000498527304	14	0.40698977421592397	-1.2383723632282582	-1.093370507819463
Si	5.494619513074329	2.801085320453409	2.760872547436443	14	0.5073850092044061	0.14336483265145689	-0.5192696864362586
Si	6.973734520578474	3.9770137313977454	4.152296813781649	14	0.23646584184667888	0.48924277584437725	-0.1509629630935585
Si	5.474513126565846	0.052824364554505496	5.449355543446749	14	0.2855492708504338	-0.27753924933604446	-0.07422343971363078
Si	6.758271465155595	1.4122850523474824	6.9764897187297175	14	0.14204328451690076	-0.9296016404578431	-1.086649895623128
Si	8.310694423469625	2.4908959285925216	5.53780068409948	14	-1.403752285183483	1.5485744203304	0.1454970502934557
Si	9.450132858898973	4.040202888997407	6.848422204663858	14	0.3755767807459508	1.0720637580313959	0.2165210065466942
Si	7.87166671806009	-0.2892138059356425	8.154681328155434	14	1.5452695215518815	0.88516856964664	0.33230610664998667
Si	9.519422812404962	1.080529674957513	9.375627708892416	14	-1.3609508378084458	0.8216226732170522	0.5940718819574546
Si	5.232957688651126	2.646515424170821	8.204504494723762	14	-0.549542394696746	0.14141773459250875	0.27938196051899455
Si	6.620183557813484	3.937325758028635	9.497692826985924	14	0.3697411430008107	0.7674618254270688	0.8643919817755874
Si	5.44610834562564	0.0744067500725835	10.706995215536102	14	0.3269337820835373	0.3804096874162331	3.70003035788721
Si	6.817770625231268	1.708944453287082	12.265535369745454	14	0.7482615822277989	-2.5179407756696532	-0.9794558868365784
Si	8.25375366167725	2.8052673176472616	10.740155993285004	14	-0.6846632352496802	-1.8478539078114886	-0.717911740807707
Si	9.497758426941905	4.037841290582055	12.105717476984307	14	0.949067221726152	0.17543937152030417	1.4769447116637344
Si	8.13487014144887	-0.06510795631213499	13.58694808306887	14	-0.4320899327933375	0.9969216623868761	-0.30573758982423654
Si	9.441867264445241	1.4695210139417776	14.979700748522713	14	0.9511891549468705	-0.47481990344047453	0.3992129519540721
Si	5.352858008197227	2.7212993739903015	13.647365642528294	14	-1.2827131313584679	0.3813468553054271	0.012281655893283344
Si	6.741723876259135	4.108230043350741	14.922858386664311	14	0.6352913282290047	-0.019042634443144732	0.7222473957090728
Si	5.401418375612902	5.387970384636593	0.0477403679659005	14	-0.2124807716466135	0.2820330272145992	-0.8029780458774664
Si	6.607522766308958	6.869348590622116	1.3842738711431684	14	0.8966688666331303	0.06055210139480741	-0.1310412677414551
Si	8.149433331676873	8.250998463526004	0.18968227272195298	14	-0.9235371743392099	-1.8749063066584903	-1.527360744554922
Si	9.739018665054706	9.34930572655464	1.2661939503755684	14	-0.35960353183399885	1.0532918609784627	2.005034832011293
Si	8.133016942692379	5.702243373757359	2.7459649574395333	14	0.09774673939819759	-1.324610578102941	0.2585079277563084
Si	9.629023938861888	7.0667716581499445	3.958252143986893	14	0.12051644811342897	-0.7554923017196514	1.0025133022371344
Si	5.305544039945209	8.327340412300057	2.6046954522322965	14	0.05660854005476428	-0.0205179346758457	1.167039874336602
Si	6.684586314598813	9.767964645631764	4.169188802447014	14	0.35509998375522744	-0.934669546154387	-2.0701951254714017
Si	5.629493022573321	5.465099532882428	5.360877602816026	14	-0.924043424976747	0.0357661318875159	-0.11889973708811986
Si	6.9605325294370965	6.792793441991122	6.709465097904986	14	-0.473089549560015	0.5347400271475896	0.7472503665053848
Si	8.156173727154023	8.420459549816506	5.347429611839716	14	0.29202434248869474	-1.228214440329417	0.2569236126580331
Si	9.42659887469043	9.568425979523514	6.919532556948346	14	1.127245848854542	-0.5281561977542863	-1.945827161588391
Si	8.014297422353954	5.342854014909972	8.356237192910127	14	0.7514142715713646	0.9481647637587801	-1.4030472881046985
Si	9.187372235213072	7.39150784024984	9.653853522201075	14	-2.8564087933299067	-1.7032420890797597	1.6201727615121595
Si	5.304625640561461	7.971723050921635	8.159338925030156	14	0.9609282447890591	0.20079972595611675	-1.0068628411072287
Si	6.787791445347494	9.310109752855395	9.362507717696017	14	1.1781277660297407	-0.5058395177964651	-0.12570776686533996
Si	5.5840814530447815	5.465099532882428	11.00570461510014	14	-0.482553274022416	-0.6133271468105757	0.121419677412397
Si	7.013635693804526	6.943263341024835	12.277015362042304	14	-1.488551966631543	0.6356885640009675	-0.9968013346578932
Si	9.175367443268367	9.0987138947034	11.962381573163636	14	-0.19985690163521846	1.3397091369849787	0.8492975366620621
Si	8.202667695956267	5.463459533982879	13.463341366009788	14	-0.31466112505887445	-1.5340330199712384	0.9960423443673855
Si	9.280524172707512	6.8790245841294615	14.873428819831872	14	1.477351460525382	0.5105968339703351	1.1609224434483736
Si	5.414357966930352	8.197796899224603	13.73093998644936	14	-0.13052241868784925	-0.7440164302337025	-1.3889478607500705
Si	6.913841760766908	9.350404525817337	14.960135561651082	14	-0.6232657544256082	1.2739119807370691	1.5759322664894355
Si	5.515053899362722	10.857891514283697	-0.060319159525448994	14	0.16543700049333213	-0.714437920409655	-0.21591268302794714
Si	6.802256235641526	12.424057663375958	1.0917800674084261	14	1.354644944900251	-1.4364019803124475	0.2883923991134535
Si	8.038553006078297	13.913881863694165	-0.2550690288470115	14	0.41924674749813384	-0.1450635619364787	0.9175339005271961
Si	9.561357584266455	15.004973131564778	1.3620190860762749	14	-0.21653900428393524	0.8490512247723918	-2.083240399644769
Si	8.166981319902058	10.922113871190076	2.6057122515500173	14	0.3421256720886962	0.26034189718117	-0.2600845295386232
Si	9.568753979303425	12.3451737163076	4.010076109212673	14	-0.2131448881508078	-0.5038749362213398	0.39017191720630334
Si	5.451405542071186	13.316528664522073	2.6128298467740643	14	-0.9036206211977467	1.4283294809387785	2.1134079496976623
Si	6.782904248626836	15.078822282011513	3.987509724354865	14	0.13181131378483946	-1.6077360679680712	0.7474316294304552
Si	5.3088896377002905	10.950354652240327	5.486681918400507	14	-0.8287160956848086	-0.19447737797387263	0.7114708648702042
Si	6.78419984775748	12.187323822225913	6.732687482322615	14	0.39519045768070044	0.750187854333654	1.4726262831680137
Si	8.288915238083602	13.564152098365126	5.588607850007539	14	-0.8814440664798734	0.6030519815091359	-1.563772995209391
Si	9.556667187413742	14.909197195831057	7.015833292329922	14	-0.46437016008779664	0.9504854434207458	-1.417431593928799
Si	8.1948941011724	10.79202915847777	8.195615700688201	14	-2.149706814607513	1.2922069377531147	0.636894669506649
Si	9.47934123929996	12.174384230908466	9.536364001037311	14	-0.29730462148468284	0.8038715049762177	-0.5867552875479093
Si	5.519711496237443	13.653122038665714	8.30328162844366	14	-0.8758010045232123	-1.7176531343991894	-1.9273486276524867
Si	6.609835164757324	14.952214366966254	9.657510719747071	14	2.228423775089167	-0.47164458837009166	0.5002316799826901
Si	5.6862041845197595	10.614450077634496	10.864369509936921	14	-1.0363621608874158	0.7101912257523665	1.363205697174216
Si	6.914874960073624	12.106996676125956	12.368494500659203	14	0.5820234253167087	-1.0861490443067632	-1.4765166226279298
Si	8.136756140183351	13.540109714497724	10.902335484461503	14	-0.036997691335866834	0.7203874581204777	0.44732758847319515
Si	9.569049179105344	14.98404674560652	12.221255399457602	14	-0.19171318264418144	-0.7156435116942724	0.712806811194553
Si	8.234664074486485	10.709094414127525	13.708849201272423	14	0.730359490104672	0.5344790599575945	-0.6215006906233265
Si	9.403999689854633	12.353373710805352	15.101339466902337	14	-0.22980076552525908	-0.801409157411112	-0.5938127145411838
Si	5.4440255470232115	13.277135890954881	13.563709298662248	14	-0.8428702875827558	1.243715891415122	1.3961089032877467
Si	6.473288856380791	15.043693505583153	14.786197278364808	14	2.1272217272512224	-0.7505259546832534	-0.8952853548603588
Si	10.957455847475378	0.26221942404904947	0.19115827173154798	14	-0.6250115349379886	-1.389133751664717	-1.78197267641961
Si	12.595388348411946	1.454121424275003	1.3117859197830586	14	-1.6362943632010838	-0.20415733239369815	0.9710375737973495
Si	13.702207205729247	2.6783314028220917	-0.19351987014689997	14	0.7933487422324478	1.3393890343726202	0.7788312531527636
Si	15.051368700433049	4.188212789681795	1.2670467498033344	14	0.42987981066013825	-0.5606657676433027	-0.758399707615675
Si	13.790914746205905	0.0745707499625385	2.7274657698526097	14	-0.001813657692832455	-0.5299114913563514	0.3925579029434008
Si	15.119379454797386	1.6041485236058368	3.924205766832235	14	-1.6938583259928153	-1.4801735057247765	1.7039344877424756
Si	11.003671016464697	2.712394179965745	2.619931042009116	14	-0.35957473545441315	0.7817124337745216	0.31473748688688286
Si	12.280442959742365	4.090567255202587	4.11559363840972	14	-0.36367179178206915	0.6130466392201475	-0.1331279768192873
Si	10.79730995493432	0.116702321691978	5.54170388148041	14	0.6634099644522721	-1.5246615981898306	-0.1378888925406055
Si	12.275916562779605	1.381338273112974	6.859278997378879	14	0.06551587732588529	-0.8467387726474508	0.15726294245951733
Si	13.570023294425514	2.6630958130452718	5.46054033594168	14	0.8506149710281059	0.3264267601144041	-0.9169371469823896
Si	15.078904281956492	3.9523645479375085	6.675549920662293	14	-0.12013232497859885	0.870532038390633	0.42036697808612233
Si	13.549621708115112	-0.10171273175009099	8.271055650067503	14	-0.048045730896543126	0.49853372202926427	-0.10505767737603863
Si	15.050023901335416	1.1926563997197464	9.624136742141228	14	-0.48006650095676867	1.2718823501973442	-0.5936324800582413
Si	10.736892395474898	2.5724694738561387	8.081980176938382	14	1.1372893575666365	0.8168175344842273	1.003476952511126
Si	12.268520167742635	3.9859353254112975	9.54384239601926	14	-0.12703985653170866	0.05882508995126395	-0.505229651614526
Si	10.902499484351459	-0.012398391680598	10.883409897160696	14	-0.34261032544154413	0.4198234464214431	1.2376784219023502
Si	12.23719618876123	1.2900231343860298	12.448969246660122	14	1.503106479627837	-0.04239958361349794	-0.7766668966942629
Si	13.747110375598924	2.771630940217491	11.049541785685111	14	-1.2214262080631624	-1.8656035333891308	-0.7297835625129587
Si	15.001053534194854	3.899195783614098	12.554716375703105	14	-0.19898221160530408	0.8935873969069329	-0.5534982973423259
Si	13.876194688982505	-0.006855195400119	14.001097005172232	14	0.4332374170977196	0.286646361490541	-1.9450620006451151
Si	15.273473751399104	1.1391268356384345	15.58923913951846	14	-0.23901792098745792	0.4177927874395902	-1.9023939936361938
Si	11.0583321797867	2.8136641120129573	13.694532010879351	14	-1.9737467942598792	-0.5462428952394001	-0.5418090241148047
Si	12.303419344325059	4.147639216906927	15.068227889120422	14	-0.902599892385648	-0.32916447305929775	0.8216447847228053
Si	10.786371162274323	5.529289089810816	-0.1082563273592955	14	0.2721784947435357	0.13844373706869345	-0.09087108955105759
Si	12.485065622439217	6.820640623305481	1.0082877234323355	14	-0.1273681866810916	-0.06740718239938621	0.7700725257691472
Si	13.730201986944563	8.355302393537384	-0.44694890009436145	14	-0.5061999867623499	-0.1513918234609592	1.719133833953063
Si	14.903604799583594	9.702561489517711	1.2852179376103485	14	-0.4120000871532965	-0.15313657553121168	-0.7446437799318186
Si	13.750242773497064	5.42413236037167	2.700979787624877	14	-0.9190307980445862	0.2964337881127487	-0.2651300666188818
Si	15.170088220771472	6.742839075510829	4.008173710489196	14	-0.04159945563786786	0.7631835061743424	-0.1096928660472016
Si	11.261446043495967	8.101102564107135	2.592854660177545	14	-0.2474465184479673	0.5078128411296787	0.08371570344508548
Si	12.407985674160367	9.644161128704734	4.060276475527899	14	-0.3709176807953105	-0.3425164800973587	0.4088288858514259
Si	10.926574668196853	5.535783485453034	5.576078258414977	14	-1.3652839216044914	-0.8349571967389361	-1.7631647838921947
Si	12.180206227001868	6.914874960073624	6.79272784203514	14	2.026583522809986	0.10920641292062958	0.26571165064229924
Si	13.882557884712758	8.222249282816893	5.392152381830445	14	-1.5801352523562815	-0.7151082075666175	-0.13881706156117898
Si	15.12767784922911	9.427976473766053	6.863870994297619	14	0.5179455671963823	1.0929581025261115	1.3331754441454182
Si	13.662142032613238	5.32624082605753	8.02111981777608	14	-0.23274879488534084	1.0340545938625827	0.5924528569373575
Si	15.01961832173776	6.875974186176299	9.449837659097055	14	-0.7236774444881391	-1.1645435881812702	0.8547871036311103
Si	10.790438359545208	8.221363683411138	8.181429710207093	14	12.972173021125936	11.45938607285721	-3.8409868361852837
Si	12.069555501249228	9.55773318669845	9.516306814495815	14	0.5931557971318859	-0.18457887960183456	1.8586044704866234
Si	10.699615220488127	5.429199956971279	10.74497759004968	14	0.8305390093567937	1.0358587384657307	-0.19941415729908896
Si	12.019289534978022	6.462464863643761	12.558225973348144	14	1.465998487873736	0.31527870455677404	-2.296693820433995
Si	13.452189373492848	8.059790991827471	11.029353399231649	14	-1.0559424134530035	-1.2224772759180387	-1.5616420631200523
Si	14.74603370531483	9.50338362316736	12.103979078150784	14	2.168488481860663	0.7774582829118046	1.2891581210644834
Si	13.670932426714826	5.350808009572789	13.793128744720297	14	0.7506316271119114	0.9092603407174915	-0.4579431681190225
Si	15.162085026141668	6.770358257045278	14.999889134976174	14	-0.2913072612149054	0.7252769291078032	-0.7779444789278446
Si	10.789700360040408	8.119044152068211	13.370238628482333	14	-0.7248861210991407	0.8105216688867808	1.9712433090096508
Si	12.117017069402207	9.67945390502305	14.74099890869321	14	-0.7274196882816146	-1.4382588325746584	0.8392583988290118
Si	10.709619213775383	10.856153115450175	-0.099908732960586	14	0.8466528977297577	0.4626156378173277	-0.38279104516375434
Si	11.938076789472307	12.282394558432829	1.301929526396763	14	1.814315895794413	0.5905942049014224	0.36695663593909034
Si	13.580798087195559	13.726839989200487	0.12099911880879899	14	-0.3243840169375464	-0.06687907736662779	-1.0019790265516075
Si	15.234884577292693	15.338302907898315	1.0989796625774504	14	-0.16792634466429948	-0.5172670525023952	-0.09488664184006486
Si	13.61154806656212	11.17608410077439	2.6992249888023587	14	-1.353974657743288	-1.3450863466515361	-1.4135916481331576
Si	15.07913388180243	12.236687789102369	3.961384541885034	14	0.7753566614231155	1.9395346384278604	0.44731576138872253
Si	10.88729669455263	13.847248708405447	2.717379776620377	14	0.5352902436861013	-1.397677277533037	0.8274801653574134
Si	12.31365293745825	15.054517498320184	4.174945198584435	14	-0.33708656277173804	0.8792025768617684	-0.3861998165972066
Si	10.78314036444221	10.865041909485734	5.535275085794173	14	1.592485042540549	0.484499600749768	-0.856746028774531
Si	12.548484379884817	12.108472675135552	6.787824245325486	14	-1.845732745922366	-0.17119550507886774	0.2961851622282904
Si	13.666438829730058	13.569301694909713	5.3822139884991715	14	0.41244643103687423	0.13388953821511518	-0.2599996830630583
Si	14.838677243150409	15.081856279975684	6.735081880715957	14	1.5747451871631233	-0.19190832953798068	-0.209658726447219
Si	13.674737224161781	10.8979730873887	8.498228297633167	14	0.8144374622893663	-0.35706122289343645	-1.8949005071806222
Si	15.038215909258657	12.61585553467833	9.405229689029296	14	-0.4956905937662446	-1.3364276352648736	1.2916682911885438
Si	10.914143476538262	13.4363305841342	8.077584979887588	14	0.9937643450537345	-0.08669458606900904	1.0729880703939891
Si	12.079149494811597	14.988474742635304	9.587630366637246	14	0.02133606038871682	-0.1526889460949739	-1.728094907325375
Si	10.548210522081671	10.787469961537022	10.969231039574147	14	1.1697259080645606	-0.5369915440764432	-0.13789172075645767
Si	12.14204345260934	12.117837068851982	12.113573071713152	14	-0.33879634780963647	0.9646694601404068	0.3772390003354265
Si	13.391033814528628	13.711063199786816	10.829995133002353	14	1.8087165426281946	-0.8934755538255064	1.222118349615346
Si	14.979536748632757	14.746788104808621	12.434734056212028	14	-0.383046355922045	1.0569852537708553	-0.2015977970474907
Si	13.493943745475391	10.874586703081118	13.48210295342064	14	1.2028155193138022	0.972035933993163	0.04334395059758833
Si	14.863064026786716	12.207627008602344	15.04746550305212	14	-0.23391890491654022	0.3392185233032048	-0.2674582024862759
Si	10.959719045956756	13.47098376088169	13.805756736246831	14	-0.05335789159850107	0.9820383050201351	-1.8355874214395937
Si	12.246970582202547	15.157329029332974	14.857865230275143	14	-0.8649655953725125	-0.768663045832642	2.4687264774051028
H	9.998723970790746	7.457749035801565	8.32569057340711	1	-10.932560679216632	-11.479278971829727	1.7437349409878358
H	9.969240070574635	8.597138271263926	10.255378878573621	1	0.29528836069262265	-0.032458404893145394	-0.20673692236140273
H	6.13771064155597	5.958775281622769	13.209648296239498	1	-0.01837466128097026	-0.07588360241885041	0.07823076446561358
H	0.2962756411971048	0.20472106263082648	0.1282971139117965	1	0.14201037436880287	-0.35406794207972003	-0.4211102846341772
H	14.41551160709732	14.477526525484905	2.0724567693679377	1	-0.8555782327381198	-0.816480462576756	0.7067911960770026
H	2.2371569388530457	13.941353485260525	14.019002513157519	1	-0.5887563788185806	0.6236789310505558	0.6137511220778681
H	11.520552749633671	4.405878363626769	11.653584540368467	1	0.333665707143281	-0.4310185532064319	0.25638342343027004
H	10.310917441306882	10.089839029651944	12.94968223067843	1	-0.4811047132850445	-0.17061546371864234	-0.12695552427720783
