224
config_type=divacancy dft_energy=-23048.403786225812 dft_virial="-1.0813349462852238 5.5970220815212715 -4.527836966093186 5.5970220815212715 -3.021257939808154 10.096509442281135 -4.527836966093184 10.096509442281135 2.6567630140940333" pbc="T T T" Lattice="16.3999889955 0.0 0.0 0.0 16.3999889955 0.0 0.0 0.0 16.3999889955" Properties=species:S:1:pos:R:3:Z:I:1:dft_force:R:3
Si	1.4721450121810573	0.8551118262143654	0.736129906052013	14	-0.20973174583831117	0.6917047213899697	1.1625666653006084
Si	2.7663993437279264	2.748211755931917	-0.0574819614292275	14	-1.5953888488891241	0.1607172224571363	-0.23004939140971736
Si	4.049419682812878	3.8604426096177313	1.55635895567295	14	-0.5262404671802441	1.1772199087411963	-1.111062797748466
Si	2.7222505733520403	-0.010299193089174	2.6028422534758047	14	-0.1851856604573895	-1.3069481129956517	-0.5574470008930094
Si	3.980211729251868	1.1657932177451173	4.118283236604982	14	-0.5847128014815837	0.561504205088203	0.852996585886159
Si	0.062352758160890996	2.3067076521840613	2.3780804042924775	14	0.8646696611501633	0.3084017691569739	-0.09176994797098137
Si	1.193951998850391	4.018718903413302	3.8259698327491902	14	-1.0045701864932528	0.007690176012562905	0.39452068474480184
Si	0.20301546377529447	-0.20237586420446999	5.17652532651761	14	-2.498141207820257	1.3048493197228148	1.6374045664783239
Si	1.3018803264297765	1.3504898938124386	6.609638364889379	14	-0.2709531059479532	0.18205353995638512	0.36930534064904563
Si	2.606581450966779	2.8258165038586225	5.210866903474188	14	0.7289821489846686	0.02933965413980577	0.9222840176061695
Si	4.051846881184212	4.26891713552865	6.646849939920168	14	-0.09114131272020516	-1.2079255911375968	0.2951842309271567
Si	2.6246870388178105	0.054251163597114	8.153566128903739	14	-0.7175605278209748	0.1806000941189054	0.762359466919235
Si	4.013536506890724	1.4090378545263733	9.4893944325542	14	0.41965323924924935	0.9484337013752677	-0.469132618472307
Si	-0.1593914930472645	2.966364409550058	8.25313046209542	14	1.6181439023040305	-0.8446304662849292	-1.6140990394143737
Si	1.353917491512498	4.253681545751831	9.548827992673893	14	1.2576674802138414	-0.33206442274989273	-0.23315991462603253
Si	-0.028847580643084497	0.10727232801956549	10.849035520226128	14	1.8696311698731425	1.019088704015065	-0.8760308613388338
Si	1.5398933667214678	1.4161554497504203	12.277490961723172	14	-0.8175958080646362	0.7650010205251552	-0.24811346316801372
Si	2.9297924340900927	3.0205663731801855	10.904254283173977	14	-1.3554324744598123	-1.4648458613587134	-0.25661482290908333
Si	4.264735138334798	4.334631891433618	12.24149298587805	14	-0.017903120565255105	-0.6376742286397179	0.31245408825205934
Si	2.7475557563720967	0.0933651373513815	13.825469523019423	14	0.20545419791718086	0.10789669187054614	0.18277319233549455
Si	4.3062271104934124	1.587814134566319	15.23362177814004	14	0.5205518966594165	-1.5300094972557388	-1.9152577477739585
Si	-0.124836716233746	2.8426428925680063	13.431820587160436	14	-0.22075150324046589	-2.0928637897475513	0.03951763166014396
Si	1.27165514671107	4.060063275670958	14.685698145800384	14	0.9771961423707001	0.16194955323708324	2.686515810206226
Si	0.10454992984631249	5.271382862867583	0.0413771722356465	14	-1.7281417014422018	0.02469392393683021	-0.9596138957493994
Si	1.2242099785470886	6.836351812763171	1.3169027163496543	14	-0.30911319399905895	0.20536086679405943	0.8232617528586466
Si	2.5395382959531747	8.13359094230722	-0.10787912761239898	14	0.8452472744512327	0.5549437727533132	0.5241869253610417
Si	4.125532031740993	9.498430826490722	1.1132476530035353	14	-0.05075670434610727	0.042851841039311986	-1.036554736675895
Si	2.5745522724585674	5.397318378364027	2.5825226671103803	14	-0.09274156867146531	-0.30014235042653026	-0.1431666004312735
Si	3.7576146786159463	6.808914631173699	3.9068709784639917	14	1.6697385298739744	1.0852584134238639	0.9347029705235488
Si	-0.1674274876550595	8.215935287053625	3.000443586682707	14	0.32869653189103076	-1.4231710723349655	-0.3576566908855827
Si	1.3527858922718086	9.547893193301148	4.124859632192178	14	0.608246128476899	0.18813111871215113	0.3587344982357888
Si	-0.16932988637853752	5.472348328018439	5.5343730863994205	14	1.332616228738286	-1.1069526287836773	0.29117562062251384
Si	1.5682161477166965	6.6526063360575876	6.961483728798835	14	-2.148142297020203	1.3742570791718083	-1.0950862063995976
Si	2.7579041494282577	8.151466930312315	5.56484426595306	14	-0.9836131070287257	0.5132754114928654	-0.3874683999621677
Si	3.929404563343809	9.814491414411997	6.856080999524757	14	1.0215842188388007	-2.0172025879388937	-0.16405863093120074
Si	2.9621660123672098	5.5520030745695825	8.279895244136075	14	0.33259355622477926	-0.7630624071137635	1.1111556146505233
Si	4.444692217582419	7.044418473149078	9.531755604129577	14	-1.6016448623541082	0.187763707761902	-0.2481949672066624
Si	0.022320385022875498	8.13063894428803	8.20178209655051	14	-0.4706835092014203	-0.1485286405764423	-0.16148392606360443
Si	1.267030349814339	9.616543547236311	9.623710342427346	14	-0.3770525951997158	0.740136375195067	-0.04254845061153451
Si	0.0582691609010115	5.576094658403973	10.929707066094993	14	0.23513966572254652	0.9427135062590022	-0.49440401266404244
Si	1.5773673415761855	6.716500693184056	12.387354488004027	14	-0.8125124757361715	1.546737622689686	-1.027371776914454
Si	2.753328552498513	8.400927162922866	10.87844070049506	14	0.5205845496969823	-1.9344600478574843	0.3613793942786251
Si	4.184883591915708	9.604128755566718	12.224830597058624	14	0.017039486288217366	0.3207531020044333	0.8730082699244676
Si	2.8840528647816437	5.400680376108105	13.753850771076074	14	0.029337083034485626	0.629982767074495	-0.41226413966967573
Si	4.112592440423544	6.898556971023102	15.082545079513494	14	0.19433519584966844	-0.5669642043460694	-0.24185127905026108
Si	0.0928403377035255	8.157338126372704	13.675737623490509	14	-0.6614276422504379	-0.48146672491412135	0.1322059784514822
Si	1.4087754547024456	9.638978732182157	14.979421948709788	14	-0.8981241122443342	0.8745784439434822	-0.47735655594933274
Si	-0.220284652187556	10.9956514218459	-0.1347587095760235	14	1.5149698166855325	-0.4897978774829972	0.8453562893168071
Si	1.4304562401544965	12.208430608063123	1.307866322413134	14	0.3622168032813973	-0.952208598206309	-1.1259968058900143
Si	2.5854418651515796	13.766314762712653	-0.047822367910878	14	0.5315495425558178	-0.6190671394378062	0.1383110680341738
Si	4.118791636263842	14.932042380501791	1.2690475484607855	14	-0.14185019450735764	1.2384271277715773	-0.030173720705661815
Si	2.9175088423324635	10.751586785614867	2.532519100663101	14	-1.831750818080869	0.8817052907804005	1.398580249721473
Si	4.105819244968402	12.123265465209492	4.130944028109509	14	0.31815191475203947	0.1809963014487402	-2.3854198368164528
Si	0.18458187614435248	13.383719419436634	2.719741375035729	14	-2.082226869927567	0.26325033151932153	0.3309945858261792
Si	1.43467103732634	14.836332044724053	3.932192561473044	14	1.769694362963243	-0.6926979393751429	0.24215132704112238
Si	-0.025026383207132998	10.875537902442856	5.651403407871309	14	-0.9411767566091497	-1.4676522228156552	-1.6449888129516967
Si	1.3798130741363925	12.145028250606519	6.853916200977351	14	-0.550861371725982	1.6614701122749098	-0.20810500750225353
Si	2.865930876941616	13.363137433247283	5.5399162826799	14	-0.7808243739969425	2.392228637925269	0.07606795067030503
Si	4.109738842338326	15.10788306251154	7.052405267789887	14	-0.14433311091502465	-1.7906524708698979	-0.5711679615445115
Si	2.694452592004668	11.095264955004565	8.311432422974422	14	-1.1718087604844125	-1.9994403639451828	0.08043523016710855
Si	3.875202599713681	12.334349723570572	9.65467352165085	14	2.3486723140282364	0.8206852482173261	1.0019797978832035
Si	-0.048347167558734	13.694991210571226	7.928902679654385	14	-0.2505056195578795	0.19972526104282687	0.9552589575581328
Si	1.304520724658052	14.976584750613569	9.549631592134672	14	-0.49527587447810467	0.19099892958624431	-0.6019330364738075
Si	-0.1163251219450815	11.017283007330963	11.19582968752497	14	-0.14975042982457665	-0.5014136170983623	-1.9309944549964568
Si	1.2508271606867851	12.355472909396777	12.534478789282659	14	-0.550165887736882	1.4412528847199708	-0.17951740166859104
Si	2.6243754390268963	13.680182020508287	11.064908575373895	14	-0.8725159032556592	0.08939938886580483	-0.3754451401535592
Si	4.014848506010364	15.260042160411789	12.019601134768935	14	-0.9289529505855697	-0.6924529130381327	2.2490147291561047
Si	2.78832612901491	11.176330100609322	13.664552830995577	14	0.7116492995794224	-2.1192387023426944	0.4044045278165151
Si	4.1390948226402715	12.481588824772171	15.031819913550413	14	-0.7865178296178784	-0.4723876378076145	0.4946629229697814
Si	-0.255151028791989	13.830815919431956	13.875833889224603	14	0.2478766643680281	0.25051513264756403	-0.8509366163036566
Si	1.0751832785449797	15.308520527882488	15.47425881667101	14	0.6668141078961483	0.5782824670758933	-1.090035784219231
Si	5.69556857823619	-0.034144777088631	0.0416395720595745	14	-1.4261273292320717	0.5903142115320582	0.2849085514046529
Si	6.965501726102732	1.3730562786702465	1.449037427686398	14	-0.9067036335871362	0.8988807885400537	-1.2655913697000056
Si	8.190039704429731	2.835820497145878	-0.056645561990457	14	-0.34257947217770235	-0.7105732920029404	-0.03877921021219743
Si	9.434257669551329	4.155035611943898	1.372580678989377	14	1.798535479781472	-1.4070759530308383	-0.6474701399094821
Si	7.985925441391738	-0.190863071929629	2.627491436936041	14	2.21159871898465	0.085391549892758	0.8490923624575142
Si	9.327952940882499	1.300683127233105	4.241807953719088	14	-0.787100956304488	0.7179047988233427	-1.4729723539441058
Si	5.293654047923472	2.3952511927707656	2.7810609338899033	14	1.8046385124799076	1.0757710347925173	0.17495009017788
Si	6.539479211966629	4.057422877442682	4.158578009566926	14	0.6250660423707758	-0.4652247954962139	-1.3606317636382155
Si	5.3484136111794465	-0.0488883671955855	5.592412647454495	14	1.028291204176939	-0.05429763059301519	-1.1623591771012722
Si	7.019228090051991	1.263291152323365	6.6864559133443	14	-1.2124895601913914	0.15649906706890135	1.4048226363282605
Si	8.066613387249598	2.961657612708349	5.526533891659572	14	0.39382648630836187	-0.8650931221963919	-0.2597214894674183
Si	9.486868834248893	4.217995169697622	6.93868774409509	14	0.6958210610075268	-0.23316274284188468	-2.573337039565968
Si	8.304200027827406	-0.12449231646484049	8.29186723610279	14	-0.2975239367684914	0.7645348791306122	-1.119897886960091
Si	9.500710424961097	1.4376394353345254	9.551091191155272	14	0.3703551229512621	-0.08221494926971504	0.6741630982327275
Si	5.417047565125614	2.784504931578958	8.019791418667445	14	0.685511700005329	-0.4934331632951545	0.17268006129072125
Si	6.957924931186811	4.1052288453645644	9.489755232312103	14	-1.3124829314183346	-0.9050154458339269	0.4136425092318072
Si	5.435923952459435	0.050905565842032	10.764198377152406	14	0.762463339574169	1.4547918111148066	0.2655710111812871
Si	6.795745440010312	1.4940061975120589	12.241738985712983	14	-0.7617220899103703	-1.7892676735444661	0.8129930153205072
Si	8.202749695901243	2.746145357318484	11.063498176320282	14	0.8760961674139653	0.7576304329038867	-1.1070439030225425
Si	9.626514740545577	3.890421789501505	12.660922704437963	14	0.5679733631842275	-0.6909295331359451	-1.3852608957209782
Si	8.080012178258922	-0.0694539533959425	13.715589596749572	14	0.3703003584079429	1.0721277785538676	-1.5911745501588692
Si	9.403163290415861	1.2802979409116984	15.023947918832572	14	1.904211765097538	0.5499090343153992	0.5261502213835069
Si	5.5684358635430735	2.9347944307337204	13.624881257615463	14	-0.7913502220670966	-1.116303481722524	-0.18062169140359463
Si	6.82964421726401	4.213911572437743	14.98437474538643	14	-0.12492460818482286	0.32678157264858454	1.4456049946953853
Si	5.280862056506982	5.3857399861332045	0.09858033385195049	14	0.672349183429363	0.03319914033588005	-0.10595653579596241
Si	6.5657191943594295	6.842059008933604	1.4798858069869334	14	1.497861167664203	-0.2147513147548363	-0.7227096804456353
Si	8.220100884258482	8.252900862249481	0.072979951029975	14	-0.4634155086824257	-0.8635962246790014	-0.6544707454751812
Si	9.589040765690859	9.5316736041846	1.5681341477717188	14	-1.1055776016584622	-1.0455983425289836	-0.059180159595976396
Si	8.114124155369561	5.297393245414447	2.6748874051330365	14	-2.937532565501751	0.7920475058299208	0.6397108011638072
Si	9.363704916892688	6.685586713927539	3.8942921869044436	14	2.478281733216901	-0.5077724747761524	0.025337985819527307
Si	5.227447292348638	8.328160411749833	2.694878991718551	14	0.8220312218524236	-1.1364126106524661	1.0959305573867344
Si	6.798746637996488	9.49952962575342	4.198331582892018	14	-0.39650866337834034	-1.1141555803380723	-0.5903376085904716
Si	5.335474019861997	5.64028421533236	5.296524045997685	14	0.31838074312553266	0.34688350248363026	0.27720037765484895
Si	6.999334903400449	6.7713094564070175	6.742150275973018	14	-1.0728224912113717	-0.6202269650477251	0.08603561177545509
Si	8.290276437170228	7.966294654564125	5.300755243158523	14	-0.5915933364288319	1.9779384672633162	0.9545156510100778
Si	9.776984639579288	9.281130972300346	6.692638709195604	14	-2.6274104697750658	1.530487208624222	-0.7835816273422692
Si	8.334966407182964	5.45758833792249	8.295557233626779	14	-1.4077806929990913	2.081401545119799	1.0174714787686918
Si	9.395766895378891	6.755795066817274	10.13278240083666	14	-1.0591475533451	1.1874837611792275	-0.6610707728320014
Si	5.577865857215487	8.25983805759458	7.860711525411096	14	-0.08260370039412145	0.5041281900953745	1.0713250794729174
Si	7.0015161019368515	9.363360517123784	9.474864042304189	14	-0.08914124989166194	0.6932080466706603	-0.35645521336947755
Si	5.641596214451999	5.5699774625086516	10.866714708363277	14	0.10005276375983839	-0.4338963913912736	-0.8918241328783753
Si	7.272509520098493	6.70052710390244	11.97748596302849	14	0.17485418794943847	1.651284678549143	1.0500052170477174
Si	9.532723203480312	9.332118538087355	12.211923805719165	14	1.246927716181051	1.080416250774429	-1.170323947162027
Si	8.309152824504048	5.438285550874786	13.72187079253485	14	-0.014646301456223532	0.44750088097177315	-0.012209150723255168
Si	9.706694286744575	6.779345451014812	14.965662357942566	14	-0.9767657393401075	-0.8831605363916042	3.0943843882205764
Si	5.632166220779587	8.084554975210676	13.572319292884885	14	-0.4024905970161968	-0.0659221119664687	-0.8306613939700327
Si	6.963599327379255	9.568999979138358	14.722844120875191	14	-0.12841848320437207	-0.16384342941590432	2.0286298655342923
Si	5.569354262926822	10.932347464323268	-0.1596538928711925	14	-0.08782561529934219	0.050309846241465526	-0.43130086057058414
Si	6.830316616812826	12.378810093737371	1.274836744576197	14	0.40927497262447154	-2.0844855859513167	-0.32672860787898944
Si	8.145579334262932	13.477084556788016	-0.2489354329626945	14	0.8687366355455736	0.42859580066325637	-0.21671101122985317
Si	9.50313762333243	14.771060088521962	1.2602243543812064	14	-1.2431839297243834	1.2580487751328193	-0.507418433573568
Si	7.9939286360215425	10.821598338636658	2.7475229563941057	14	0.6701717143337296	1.0014511786293812	-0.39378483440217543
Si	9.351667324969991	12.286740555516635	4.041924887841935	14	0.714247401505432	-0.711470093538608	0.23773211121685184
Si	5.36002480338826	13.494320945222288	2.516283111557556	14	-0.5088896200377568	0.34189890059945915	1.9961442069247533
Si	6.613164362523411	14.961644360638667	3.9424425545952313	14	-1.360709411018884	-0.020920826879512907	0.7066374439788576
Si	5.394300780388855	10.821909938427572	5.411307568977189	14	0.5661175393641447	0.40772459611642226	0.46076058532884084
Si	6.624332755029346	12.160034240537401	6.904100167303581	14	-0.8932433830150971	0.2911008014576975	0.8520527331231326
Si	8.104021762148333	13.848347507668146	5.340804016285534	14	-0.31394430089561715	-1.4375193826845836	1.3771372313514383
Si	9.664431515103173	15.029359915201088	6.792055442486325	14	-0.9642323722359815	-1.0310458864169456	1.0162535461785378
Si	8.21744408604121	10.858924713590415	7.921899884353306	14	0.4665928806370648	-1.5206290766057105	0.47712901312849954
Si	9.511600017654109	12.113655071658128	9.353963323429362	14	0.30375166807495413	1.4508611053013643	0.24560869236512545
Si	5.445189946241891	13.708242401679588	8.466904318651762	14	-0.43446511988809045	-0.34861437058515393	-1.2334150150604808
Si	6.876433385868172	15.062651892861952	9.640356331257777	14	0.892721191524575	-1.0638837864553448	0.6269190379750065
Si	5.4944555131843735	10.86645230853935	10.721574805753102	14	0.3105959504371883	-0.008157602959765826	0.41905134349380263
Si	6.692491109294645	12.230570593207048	12.314718936742958	14	0.33283935389338537	0.6158936241411475	-0.8551123484541089
Si	8.3486931979722	13.543668512109745	11.025548601784696	14	-1.0911907247290413	0.4430731804999462	-0.6906299993661478
Si	9.590844764480364	15.127776249163082	12.347535314722954	14	-0.9733009178106758	-1.7046253437419994	0.572148581113616
Si	8.294015634661202	10.824419136743883	13.33483105224105	14	-0.7703093245691328	1.0089613772695336	1.241078965798778
Si	9.685456300995403	12.021782333305337	14.878939216134361	14	-1.5951037133091197	1.4710738497757085	-0.78512069098691
Si	5.159485737951287	13.784748350343596	13.482398153222558	14	2.0171313683215257	0.3723027352312742	0.0077968768833490505
Si	6.779771850728696	15.027178716664686	14.95610116435819	14	-0.80033186428197	-1.6353721077227468	-0.234558081699129
Si	10.861335511972753	-0.06461595664226999	0.11237272459716599	14	-1.1079072801890484	0.22660359605965488	-0.4980724657348298
Si	12.193654217978176	1.196247997309761	1.551996558600147	14	-1.2404107355260716	1.3340071967164862	-0.7255438098400346
Si	13.355511438364376	2.443237560571599	-0.0449523698366655	14	2.4544617279783894	-0.18220703494399795	0.7597184275343788
Si	15.029687914980997	3.7766058658727357	1.3853562704168716	14	-0.5351012674450704	0.8199781942542854	-1.121354932345019
Si	13.690989613256324	-0.040540772796876	2.64648262419283	14	1.0696086095611865	-0.5625025652840165	0.3821071311485949
Si	15.140945440326469	1.3140491182644374	3.9579733441739697	14	-0.20885217070828851	-1.0041112441936064	0.43915301621831637
Si	10.709110814116523	2.706358984015401	2.8409044937344827	14	0.13428497421335395	-0.715739671033246	-0.34960450324394293
Si	12.208266608173169	3.9469525515689936	4.144851218777692	14	0.2863216308886063	1.0483319417053651	-0.3200445053782005
Si	10.7390735940113	-0.09549713592079649	5.290423250091359	14	1.7657451451914954	0.09120481902161282	0.0018781924363681717
Si	12.08693948958446	1.3286123084924415	6.664266728233389	14	0.4661380521059305	-0.16365291051168135	0.36679568474604907
Si	13.676836422753206	2.5788982695423748	5.377375991745499	14	-0.5664620674770444	-0.2683778868592928	-0.14529136186784383
Si	14.749723702838816	4.044926085828111	6.782937048604827	14	1.205133627870448	0.4588104019435085	-0.24968672251341234
Si	13.469720961729037	-0.07316035090892549	8.09408336881706	14	0.2034633910677902	1.4424438207042634	0.41813551577876584
Si	15.040544707696018	1.4332442382837314	9.407525687488665	14	-0.9496706601447908	-1.4234816618576391	0.21816857083584512
Si	10.765051176580174	2.810170914356916	8.075288981428217	14	1.5070461843099001	-1.0948725475474934	0.9450493554423568
Si	12.236818989014335	4.179963595217058	9.470255645396453	14	-0.42481061941093434	-2.5544350445838346	0.7348589244149312
Si	10.81502194304946	0.07130715215243401	11.075306168397042	14	0.8379121680833823	0.5145990165116776	-1.9262911320343097
Si	12.449002046638114	1.1184628495041045	12.339515720104155	14	-0.10532404388720597	0.9626513995746225	-1.1256165394131643
Si	13.605234070798854	2.6304434349552315	10.83499712964598	14	0.3006635134749243	0.7715568248704686	0.11316591511365763
Si	15.083824278655142	4.2359039576807085	12.089284688010816	14	-1.9670701479645187	-0.7245061117328229	0.2252964461148916
Si	13.681231619804	-0.3440881691145855	13.55349210551805	14	-0.3227703912386215	-0.17514677973487133	0.42368421817017743
Si	14.771060088521962	1.278805541913108	14.72951891639636	14	1.7963785795283997	0.2794390390571019	1.5999757007802684
Si	11.294164021541988	2.4999815224960287	13.70743880221881	14	-2.4374417820906045	0.416557371333259	0.98163952658498
Si	12.436341255133588	3.9915113216697673	15.089925074561469	14	-0.8657865493012358	1.4831233348585824	-0.9936728137043371
Si	11.167211706727823	5.2804192568041035	0.26669662104482095	14	-1.069135526182279	0.5475814126690691	-2.0145376372745605
Si	12.50994440574539	6.72862028505173	1.417123049101155	14	-0.04774979667419408	0.9046809450317758	-0.351150508872948
Si	13.655237637246133	8.33319520837145	-0.0578099612091375	14	0.6191494148080511	-0.5674833105102074	1.6883294211123687
Si	15.174926217525146	9.566490780822047	1.5069785888074994	14	-2.0586068966829627	0.787499734739643	-0.9056368819898069
Si	13.774645957122369	5.350709609638817	2.7967393233696014	14	-0.44754407554115166	-1.2740400217820125	-0.027993166283644226
Si	14.711347728589347	6.7132206953849565	4.400723847085483	14	1.6406603571452274	0.3845406823341151	-1.7544291964564598
Si	10.968394640135378	7.973330249843194	2.6939277923568117	14	-0.08361208790068353	0.48053032835652343	0.44267465917532317
Si	12.242230985382848	9.408837686608306	4.1706976014346	14	-0.9524276563795857	0.6232025052347324	-2.0142309044098665
Si	10.886525895069841	5.5353734857281465	5.4369079517991645	14	-0.7952881269754354	-0.9893181326236024	-0.35447340538870736
Si	11.961561573713862	6.861164996113362	6.970930122460244	14	0.6067227485747112	-0.1570554542601814	0.5280207005039146
Si	13.337651850348275	8.064792988471098	5.505246705943413	14	0.4067678878267952	-0.011406965863368968	1.6533204797416363
Si	14.884203612601917	9.28928176683111	6.717402692578809	14	1.0680564332794134	1.1667981904365081	1.108702008843506
Si	13.523594925579253	5.4452883461758645	8.196632500005922	14	0.4976520900149855	1.601985019587964	-0.6186917580610647
Si	14.895388405096847	6.886634179023373	9.60117675754753	14	1.1367867064765476	-0.6175573863938153	-0.4510934864356161
Si	10.583339298510031	8.20903089168652	8.387364372023587	14	1.8553088276872578	-1.297747412607502	2.136213139666312
Si	12.339450120148173	9.528082006594584	9.465729248433695	14	-0.7833890515537901	0.23558061028495192	0.06642527727762167
Si	10.887821494200486	5.122142963008533	11.034650595677197	14	-0.0971096194998649	1.336607869747816	0.9536515025119761
Si	12.086906689606467	6.855884199656811	12.315128936467847	14	0.6945473354319255	-0.5848153885838575	-1.9627774305219992
Si	13.642757245620556	8.236746873088917	10.994355822715253	14	-1.8115136481059835	-1.0839180962204706	-1.1448851740139498
Si	14.920578788193936	9.433076870343655	12.309274140396452	14	1.479767013973661	1.3473322071486855	1.6753013733446467
Si	13.522036926624683	5.5476898774637675	13.443595779259205	14	1.6236879767058658	-0.9436848698489542	1.9623565405810908
Si	14.895864004777717	6.8080290317679415	15.166070223467576	14	1.348052116638327	-0.7142875107484263	-1.3192685925792693
Si	10.829158733563581	8.093853768971124	13.645282843925866	14	0.9597499072208354	1.634989784361641	0.5748582690105201
Si	12.212727405179944	9.537626800189967	15.050679900895236	14	-0.6249904518743633	0.09904977557444863	-0.7431990758524274
Si	10.687692428488399	10.740287193196968	0.040163573049979494	14	1.0809392135965472	-0.37436887546654524	-0.8906851332215496
Si	12.084266291378192	12.108751474948473	1.1672036167987305	14	1.1033114294292836	0.7830866895681406	1.0012676017095226
Si	13.503652538960726	13.642134046038727	-0.0070355952790695	14	-1.8858846692649907	-0.3668455641892599	-0.06310418053558639
Si	14.879972415441078	14.653193367611303	1.400821460039628	14	0.13153337729973147	-0.15566422917144923	2.5494689546579687
Si	13.426474190747903	10.946271054980448	2.8368536964525943	14	0.8825501559886012	-0.9893767538249015	-1.3054686989944386
Si	14.987999142954436	12.089973487548626	4.111838040929751	14	0.9539644060294382	1.1324649355439107	0.06472963331898401
Si	10.833521130636385	13.524529724951998	2.5465738912322444	14	0.27732070538383186	-0.7318769564646235	1.2311465288365142
Si	12.25425217731655	14.97250115335369	3.8211154360065223	14	-0.8089131853984961	-0.008657940055066642	0.6129769622659714
Si	10.848871520336173	10.765034776591177	5.35394040747093	14	0.43727790910833236	1.9188932906966478	0.03778187845851199
Si	12.480473625520478	12.351520512048861	6.501218037640127	14	-2.0051842132303936	-1.7780340001796753	1.6511301551194022
Si	13.645742043617737	13.709800400634162	5.22456089428543	14	0.9236410469941437	0.6132901228939656	-0.7725706116982031
Si	14.813470460064325	15.14509463754233	6.655771533933719	14	1.7594356527358521	-0.7545219665718276	-0.46177334371444717
Si	13.651154039986254	10.946353054925424	8.076059780911006	14	-0.2329717097165977	-1.1668987206545258	-1.0146162663106673
Si	15.03965910829026	12.202805411837666	9.338038934114731	14	0.8576628849316957	1.0556824747051365	1.3071260334838062
Si	11.018775406329553	13.517133329915026	8.029631412064745	14	-0.1694831489356491	0.37407319835472824	0.4268911578359981
Si	12.141141453214587	15.085136277774783	9.571410777520697	14	-0.04602561344650277	-0.75185393058111	-0.17298679415541493
Si	10.892921890778085	10.924475469605428	10.751291585812949	14	-0.05279430531232462	-1.5335578797080751	0.12528661981389969
Si	12.266962168788064	12.158181041780912	12.114606271019868	14	0.05400760991290249	2.0861133527295026	-0.5023880660146983
Si	13.716704796001268	13.685052817239951	10.72500240345316	14	-1.1250861203856177	-1.3733435654515598	-0.5854242263236686
Si	14.985621144550088	15.14750543592467	11.853272446376575	14	0.05853841170806743	-1.4875196678455034	2.929075428772188
Si	13.495222944617039	10.949895452548452	13.548850908632325	14	0.5575832694749772	-1.3225961170846052	0.9929562466516119
Si	14.667658157905334	12.336153722360077	15.057535096295357	14	1.3787290026551418	-0.5328044990625821	-1.3971561144846434
Si	10.974495436041703	13.591818879800535	13.546505710205968	14	-0.16023256910428835	-0.1678363559780943	0.5303334097393878
Si	12.113310671889222	15.000774734381931	15.090482674187315	14	0.8493690133899623	-0.42583906153899354	-0.8561166221921587
H	5.784013718888922	11.158877232320311	7.863793083343349	1	0.0816498203203465	0.08963053123408614	0.11208347977387528
H	10.49566659733899	10.340719501309506	13.219655569524553	1	-0.3881651695039278	-0.5540819382499995	-0.6052150524149764
H	10.302008967284527	6.046329902873044	9.20127286588566	1	1.4031596454071888	-1.1253434880281643	-1.0151214885060764
H	8.903722945543603	14.634521980139928	4.465830163398719	1	1.4838265321636428	1.3922273055859191	-1.5752403820477836
H	7.953820822934148	8.374350980755658	10.40374465901921	1	-0.8757593526170262	0.9443533572321926	-0.7028671751373926
H	6.340557185444612	5.804628505056265	12.806880966499014	1	-0.6111285946513171	-0.6725139912803844	0.6098378997806027
H	-0.9876696572671929	3.720980383197799	9.095814376648995	1	-1.7508697582512467	1.7237224856179314	1.8637672499694808
H	13.86072129936525	13.688180295141395	2.4609938286570268	1	0.806896924606436	0.738383138477258	-0.7531284274883073
H	2.312565728253254	0.5568271863653119	5.8559129106440935	1	1.0220709290759047	-0.9054255371324905	-0.7835224919199059
H	15.932325269305421	0.3731227096322187	15.765617741167265	1	-1.215002301420772	0.8776416588219065	-1.191941029362236
