224
config_type=divacancy dft_energy=-23038.823177649643 dft_virial="-16.2321740251355 17.463356885325414 1.2514325782851468 17.463356885325414 -18.682389914658195 2.446165945903653 1.251432578285147 2.446165945903653 -12.016182717708837" pbc="T T T" Lattice="16.3999889955 0.0 0.0 0.0 16.3999889955 0.0 0.0 0.0 16.3999889955" Properties=species:S:1:pos:R:3:Z:I:1:dft_force:R:3
Si	1.0521740939842936	1.323839911694751	1.2240951786241199	14	-0.1667444075486274	0.936669094761866	0.9574374550958942
Si	2.4003843893263572	2.711475780581997	-0.10392673026448349	14	2.524534632373705	-1.2876751075158217	1.0059740099980536
Si	4.218191969565568	3.8910449890833343	1.3255619105392784	14	-0.7486562468944417	0.28990035238372036	-0.29761829633374093
Si	2.5567090844314637	0.15314309723997901	2.672804606530608	14	1.2157751756800088	-0.6566137617595247	-0.9640002014255721
Si	4.182439993555378	1.1467364305323464	4.106311244638268	14	-0.25374135560328587	1.2711554987233382	-1.3998336635650455
Si	-0.1388915068028895	2.8763120699757674	2.7679081427155126	14	-0.16261135574648936	0.005167150361901594	-1.6152100140232095
Si	1.4022482590822363	4.125089232038114	3.959514943139547	14	0.5246648938400572	-0.1748405610912417	-0.2882461032207371
Si	0.024829583339186997	0.10358233049557801	5.33083282297627	14	0.1765683438663812	-1.3873278072878452	0.6498422416778508
Si	1.4117766526886217	1.419976647186372	6.792350642288244	14	0.542005456561264	-1.4044045746032046	-0.879767448700605
Si	2.760462547711555	2.6051382519351747	5.241338083027826	14	-0.11440673054116109	0.434215722672036	0.5451802574105828
Si	4.000908515364189	3.7978274516329122	6.8208046231954365	14	0.29161090875321494	0.8357732655675512	-0.4009499907083641
Si	2.5915426610579053	-0.055333562870817	8.302264829125939	14	1.5451016283744756	0.3883004096437676	-2.510712627283121
Si	4.057619677310628	1.1469824303672789	9.597437560056555	14	-2.0581019315980855	1.9963948896934671	-1.7355454563221004
Si	-0.014382790349053499	2.5858518648764672	8.057658993258055	14	-0.7574052040778416	1.4490101665813895	0.46098838526020597
Si	1.2018403935572264	3.9295193632667775	9.540365598352214	14	0.6561000549165591	0.0957641600858314	0.6294549191522686
Si	0.09761273450121599	0.083705543833032	10.781155965773753	14	-1.0989045549105498	-1.036089366612948	1.400192332757206
Si	1.306324723447557	1.1124276535537605	12.452462444316163	14	0.7807968631700168	0.055704025203136186	0.5059919843419498
Si	2.6322802337227276	2.4368907648303404	10.944089856444046	14	-0.8129112541713265	0.8791915211088918	-0.05665122040307874
Si	4.016980504579779	3.7922514553744424	12.212629005245972	14	-0.4765191469465604	2.0763902037402984	-0.1413853386654749
Si	2.890694860324821	-0.3439241692246305	13.818712727553278	14	-2.1870768019937374	0.5998404138537389	-0.7562944865795377
Si	4.035496092155698	1.1309760411076708	15.088301475650914	14	-0.8556314546182469	1.88632098583782	0.5761631049604953
Si	-0.2457210351195765	2.3014268557275104	13.878917087155758	14	0.6789618092022518	1.3391393800460338	-0.6430807489069253
Si	1.2176663829378838	3.960466142501286	14.92905758250461	14	-1.1910951357119075	1.3671214905768014	-0.7116127898838763
Si	-0.218874253133943	5.565647865413839	-0.2450978355377475	14	1.0871011246068139	-1.3707230949092648	1.4284894036896918
Si	1.340436700558197	6.911660562230506	1.183784005673181	14	-0.125656858980001	-0.3723083916629786	-0.5671737494296616
Si	2.8909244601707575	8.264741654304233	-0.036112775768091	14	-0.9519070075522558	-0.016478471107361052	-0.3789302734150199
Si	4.01012530917966	9.655952720792499	1.4702590134465747	14	0.2503870916026207	0.40926083154521076	0.45596933056474487
Si	2.6673926101620933	5.463967933641739	2.4386291636638635	14	0.653144055129985	-1.3109047869728279	0.23097293244071457
Si	4.058144476958484	6.600388771095917	3.9029185811160763	14	0.3695218277170021	1.2672340488890486	0.7127466473300615
Si	0.12321311732319148	8.224971680990148	2.7039317856440666	14	0.7966934931434283	1.1142800218355673	-0.46679188418884415
Si	1.235050371273114	9.698412292301848	4.346341483576405	14	-0.0037224462825103887	-0.7494879994655097	-1.211336933676369
Si	0.008232794475740999	5.517563097679033	5.169670131117492	14	-1.3237975946007101	-0.7207155311593285	0.7639579230967711
Si	1.4283734415520681	6.605489167673517	6.600093571293997	14	-0.09672241103865058	0.7245197385910196	0.25546528172044514
Si	2.7264489705348884	8.092574569829475	5.221051296640393	14	0.16052978887929747	0.1157110522700722	0.8842977362747059
Si	4.009403709663858	9.435454868748002	6.780477050255501	14	0.7752214212832758	-0.05702737311141641	-1.228885755928508
Si	2.6052530518581434	5.168997731568676	8.074895381692325	14	-0.021369998978942772	0.7018230492668804	0.5633116921282671
Si	3.9472969513378993	6.690506710626188	9.437193267581526	14	-0.8384549284164656	-1.3503730534108247	-0.16974128790979198
Si	-0.0991379334777975	7.873929916541469	7.961030258096569	14	-0.07829015699850901	0.6031411988637451	-0.0855409311118586
Si	1.0395461024577584	9.417808480588844	9.237687401451268	14	1.9243676881443073	-0.4645647927605319	0.5421481529065323
Si	0.0520043651047305	5.453685140541561	11.044621788986461	14	-0.2069732069403243	-1.1103932819230995	0.646668983491724
Si	1.350932693515317	6.797451038865844	12.50341721012518	14	0.5211622770624195	0.19684639441585708	-1.9861909440093959
Si	2.618307443098561	8.123324549196038	10.71516241005586	14	-0.778334001383847	0.2388060619090777	1.0622665612089717
Si	4.029936495886224	9.571804377256589	12.134155057902504	14	-0.7271535788809794	0.6785555745616684	-0.4447850224221008
Si	2.690811794447667	5.427904357840634	13.736925982432718	14	1.225331974154999	-0.7461895284502916	-0.12332358090196663
Si	4.299863914763159	6.8748753869136	15.02074992097845	14	-0.749110046983448	-0.6547908480875396	-0.260202543272818
Si	-0.044821169924701504	8.163373322323048	13.670030427320075	14	-0.660193768807299	-0.0866087111513161	0.5581985349780886
Si	1.3422242993587064	9.5772327736141	14.939635575406706	14	0.364624129192652	-0.5860225225316671	0.6077506764817066
Si	-0.025977582568871997	10.96637744148893	-0.1523066978012085	14	-0.38171066670822806	-0.8498567520691943	-0.2985140694272805
Si	1.15488722506311	12.308864140671565	1.211795186877495	14	-0.4066308479132313	-0.6718030806593636	2.4437456181145443
Si	2.4773659376712343	13.566169297011573	0.0549235631459295	14	1.5995545537288278	2.3585165620780195	-0.15242875023657493
Si	4.034676092705924	15.133663845212466	1.3068331231064176	14	-0.300467852360061	-0.3601802307573081	0.17129654951794956
Si	2.460227949170937	11.173230502689172	2.9021912526106663	14	0.4064446998880526	-1.1523989722015506	-1.183120338340404
Si	4.0537984798746765	12.418235667282556	4.030346495611111	14	-1.2750172989142006	-0.8038673912077056	1.8513256713252844
Si	-0.15147029836243797	13.738008381706422	2.538554296613445	14	0.6733352023196398	-0.2534801313027588	0.3339140759172073
Si	1.343454298533369	15.011139527427085	3.8113082425872133	14	-0.5314796084911098	0.14145270162486276	1.622893248051408
Si	-0.3812505441783885	10.843984323615514	5.591363048158783	14	1.8436892314139124	0.5509685868178322	0.441647502599924
Si	1.3491450947148076	12.15832864168187	6.7790174512349015	14	-1.4863742404253777	1.4028459705581309	-0.8195555045396531
Si	2.6285082362537624	13.742797178493108	5.449306343479762	14	-0.12485544545171087	-0.31761403951906453	-0.7924069463536774
Si	4.120497235119374	15.081298680349835	6.6438323419449965	14	0.04607832110556581	-0.4438221434797053	1.716217172077887
Si	2.568845076288133	10.745567989653518	7.957684660341488	14	0.2946913500372843	-0.6167896543452192	1.4658997574294423
Si	4.035446892188712	12.072015499598553	9.22550220962761	14	-0.3433595455318353	0.49569162220837265	1.4877281844869674
Si	-0.089707939805385	13.500339741183636	8.23002287760076	14	1.512110490458996	0.7565780794963499	-0.3026016126652519
Si	1.3502110939995149	15.04272590623242	9.569951178500096	14	-0.62104174832368	-2.232982601932321	0.10977411297531826
Si	0.067764754529406	10.597623688925113	10.93292146393811	14	-0.03633203216848049	1.3923342635672376	-0.04077721615648451
Si	1.396787062746735	12.0809534936011	12.2464129825767	14	0.05856617964552503	0.8746558342136186	0.25596381904202187
Si	2.736108564053238	13.585029284356397	10.885607495686093	14	0.5036875026435012	-0.41005658864179667	-0.008204654187124535
Si	4.2247191651857765	14.862309627292925	12.439473653031726	14	-0.37926040333812694	-0.7284363033252013	-1.5239337182736967
Si	2.807514116139645	10.884361096522435	13.750751173155924	14	-0.019163219282659676	0.2742088966148567	-0.9601584558562068
Si	3.9238777670523253	12.149915447327178	15.44270523784367	14	1.5847233898000856	-0.8278792009031005	-1.2600827765515885
Si	-0.1434507037436385	13.548440908907438	13.638952448173603	14	1.1730968842498068	-1.0497136537044127	-0.2735108415204365
Si	1.20835118918844	14.882104414010492	14.999331535350327	14	0.07606640800711294	0.10618999215903187	0.0032550193353074676
Si	5.574815459262324	0.109781526335877	0.0027387981622485	14	-0.2479005756475055	-0.7664099862405963	0.9172752473319892
Si	7.079858849368354	1.3890626679298543	1.3724822790554039	14	-0.16967238228721204	-1.1344192326977551	-1.356280424994397
Si	8.04207900371233	2.7835865321952102	-0.22753344732356698	14	1.1096738866545222	0.2698431597812452	1.1510774240669945
Si	9.336136535391253	4.061555674669548	1.3704978803869485	14	-0.5917396323215484	1.3441345234620174	-1.437017502926091
Si	8.303740828135533	-0.13930150652777698	2.647220623697628	14	0.9144038369104477	-0.13579575569947294	-0.547074647810468
Si	9.339564133091313	1.3478822955621539	4.132764426888009	14	1.1582886031584139	-0.45628994739816736	0.3286898470171984
Si	5.733157353013876	2.512970313780465	2.7225129731759683	14	-2.611399168504376	0.95431047680553	0.8114698925288514
Si	6.6423563429354004	4.156462410986506	4.090468855268615	14	0.14394538823274633	0.13644341712961827	0.7919896559602175
Si	5.639136216102675	-0.004034397292893	5.402369574974641	14	-0.07116845237223084	-0.6124696831863063	0.253777865298832
Si	7.03180688161154	1.374712677558792	6.702544302548886	14	-1.75585847390393	0.8590798210736296	-0.11249151418818279
Si	8.214557687978004	2.9657248099792333	5.454160740222431	14	-0.4603224689822876	-0.5240105475360797	-0.6165394857975687
Si	9.620135144826326	4.317510302922317	6.679846717779114	14	-0.1749760583416135	-1.5224252507823657	1.0301485706602138
Si	8.149826931412765	-0.08495194299669	7.961883057524335	14	0.2022156336559223	0.2975730448801063	2.5311999658056568
Si	9.558717186038178	1.3707602802108765	9.402933690569926	14	-0.5831683385157708	-0.2095065170122662	0.7674080893258778
Si	5.37066839624634	2.4615235483015816	8.158568125547367	14	1.3566681476766753	0.01221352160229942	-0.09628917979220564
Si	6.981868915120241	3.78446146060158	9.429173672962724	14	-0.6939025022176323	0.3071049036334913	0.18316220057043298
Si	5.263822467940657	0.0036735975349919997	10.867633107747023	14	2.7983205821633974	-2.8094226149357966	1.99470695905079
Si	6.588826778854089	1.3657090836002626	12.22625739610123	14	0.6610206362782585	0.9331248260780419	0.022190695797134043
Si	8.307562025571483	2.718494975872071	11.069680972171586	14	-0.6799102899548545	-0.9232543527539934	-1.0068600128913767
Si	9.689211898475374	4.186753190661195	12.25002098015571	14	0.04174343753579615	-1.0326093755621277	1.0575277569934067
Si	7.948369466592044	0.102171931441965	13.582110086315199	14	2.343546301351457	0.28529241742895095	-1.1902777813306322
Si	9.464072849545149	1.447594228654794	14.975764751163792	14	0.1719550095904395	-1.2175160710922812	-0.042584960307080616
Si	5.215344100469959	2.6263434377063564	13.742698778559134	14	1.0222303376057538	-0.06935119513195018	-0.15012606831185027
Si	6.735032680748971	4.114560439103004	14.873970019468725	14	-0.6747868483833953	0.38133965621053073	-0.7505305826728297
Si	5.616520631277881	5.446124745614635	0.054693963299992494	14	-0.3794416662631974	0.5097648242887352	-0.02821942355181726
Si	6.988100910938531	7.033856880235977	1.407873455307693	14	-1.6457133504309147	0.2523179916980519	-1.189701853738919
Si	8.504935893132327	8.029779011965704	-0.15786629407068298	14	-2.4400877065755693	1.8674087064344067	1.6107494034032848
Si	9.39999809253973	9.42820607361199	1.4574834220190804	14	1.5647399879202988	1.151620955731674	-0.7917952803980143
Si	7.936659874449257	5.51251190106842	2.690713394513694	14	1.494490191478957	-1.0927027917678205	0.7908156892710378
Si	9.470140845473482	6.72548788715359	4.032560494125503	14	0.18737289975323948	-0.23138353796034217	0.26629631999210096
Si	5.4267891585889405	8.279272044554247	2.819896107831247	14	0.28334891891745106	-0.2607669008905905	-0.4422334575023858
Si	6.8951293733230425	9.65977391822845	4.117446837166212	14	-0.34279107414555055	-0.4630229009000391	0.8816268720681361
Si	5.274777660589652	5.482204721404735	5.654568605747441	14	-0.505402687002572	-1.6578703077161705	-1.5895059028060932
Si	6.748825071494187	6.566293193974272	6.944460540221506	14	0.15133757313870405	1.6963618112430434	-0.052379071803120694
Si	8.199912497805023	7.926803481062961	5.570485862167512	14	-0.8948271838923082	0.956741971106794	-0.7238085708594667
Si	9.448361660087459	9.514748815541244	6.7224046892224365	14	1.7894080558949461	-0.17835680472707618	-0.2619421531324302
Si	8.248194065407775	5.357679604961904	8.191482903461335	14	-0.4096246429480117	0.06283524291909891	0.3337549244978901
Si	9.441260464852407	6.979310516836944	9.439932065743772	14	1.4427572384427896	-0.49351672421805937	-0.2044638081478598
Si	5.2802224569361575	8.028647412725016	8.185808507268892	14	0.38178754275730054	-0.16673797978532703	-1.2055288067581549
Si	6.6605931306983965	8.996164763514539	9.688391899025596	14	-0.43415298770222444	0.0068021162349837586	2.1250653412192144
Si	5.31818843146074	5.095542180857832	10.510474147403025	14	0.44837377122796346	0.14253333719092098	1.1016962610671666
Si	6.4176108937410685	7.091699641423105	11.544673853448252	14	-2.9344174142958592	3.2807977514683366	-3.925804772481117
Si	9.486245634667064	9.620840344353132	12.514487202697143	14	0.355491563095486	0.527941510460054	0.3801026974410075
Si	8.069499785312805	5.466805131737961	13.342243847267016	14	0.7658302019909029	-1.25798886837886	1.8486571211135026
Si	9.407820887290585	6.529540818635357	15.022439119844986	14	1.4697052504137935	-0.47864827926217507	-2.7256824859901694
Si	5.40135277565692	8.364961987055734	13.481233754003878	14	0.6248402993236668	-1.5308767310802245	0.06227397062771058
Si	6.884600580387931	9.279999373059656	15.00831872931986	14	0.174586021664547	0.8068835548587713	0.317292651354046
Si	5.746244544232285	10.729364800525964	0.10566512909800649	14	-1.8985373356559714	0.43139881968328175	0.3308855709606049
Si	6.7587962648034505	12.366329702111797	1.4389186344761744	14	0.2802638496438054	0.3590178340420691	-0.15660602505021948
Si	8.071762983794185	13.812070732010099	0.0345219768355275	14	0.5678784893979141	0.00545459993669415	-0.34848607242967855
Si	9.905248953513095	14.891124407958017	1.2341811718563525	14	-2.109885278298528	0.5605606094357086	0.593936384707083
Si	8.25265486241455	11.052182183913386	2.6989789889674256	14	-0.26145570000585816	-0.2783463192960389	0.3812658654878424
Si	9.85522898707682	12.397161681423336	3.85990140998088	14	-1.5739905677516595	1.0209357860770594	-0.3103331834734692
Si	5.335080420126104	13.720919593173111	2.8521876861633872	14	0.27613491161017956	0.47762780756060824	-2.6695804536834746
Si	6.8066350327033245	15.033279512571012	3.898998983746152	14	0.9588587621168722	-0.19800724846790393	1.7158783003966915
Si	5.373029994661692	11.06280937678247	5.455767939143989	14	0.7914574371589469	-0.765155029733832	0.10186539301054279
Si	7.141621207925407	12.344878516505682	6.7391654779758365	14	-2.2338032987505128	0.4202109119931895	-0.6876228345837027
Si	8.406437559225354	13.712735998664355	5.443746747210288	14	-0.1842137826463735	-0.3287435831183895	-2.5310937791559347
Si	9.554207189064417	14.98750714328457	6.868003791524486	14	1.367584803755492	0.4119458368310414	-0.7590720516568936
Si	8.070040984949658	10.207861550458059	8.409701157035459	14	1.6211677792710568	1.8887347395123748	0.20637491073232583
Si	9.409460886190134	12.259516573784104	9.373659710212957	14	-1.6375189806650705	-1.1849864465817674	0.9108032610201123
Si	5.475480725916579	13.410287401609345	8.039094205715148	14	0.3382132211230269	2.094555319937677	-0.2785394093055821
Si	6.799993037160147	15.029359915201088	9.49598722813039	14	-0.8899184296150815	-0.5522070882505475	0.0899092390507902
Si	5.456883138395684	10.87650550179359	10.71557240978075	14	0.2520269425758111	-0.270134208903486	1.1313783864356162
Si	6.723946288188014	12.243952984227375	12.56271957033291	14	-0.757722992695412	0.379834788266648	-1.9666981090246933
Si	8.096920566913282	13.605644070523741	10.962851443854898	14	-0.15997700123546565	0.1408060686368455	-0.29128155016170393
Si	9.47427364270035	15.132040246301912	12.157426642287119	14	-0.28903003323285026	0.210457568870189	0.7464520383034788
Si	8.040275004922826	10.950092252416399	13.852070305170125	14	0.5517766852199547	-0.8588165398888462	-0.09855792312670429
Si	9.401064091824438	12.35411171031015	15.090892673912203	14	1.1731940720309084	0.1610272977587461	0.44272171040268193
Si	5.316302432726257	13.509605734966092	14.040555378695405	14	0.2872963369154744	0.10203380040901248	-0.9842502269270584
Si	6.733671481662345	15.202264999180644	14.839612042523152	14	-0.4163961630296857	-1.7984740303643203	2.415689459750556
Si	10.93944865955832	0.13254471106163102	0.044968769825661	14	-0.4132175055223867	0.11231153681577241	-0.9271783736936035
Si	12.111818272890632	1.518868580829237	1.485150203454489	14	1.640098056411711	-0.9271061256341073	-0.12281913003815358
Si	13.694253211066426	2.702324586722508	0.0721599515802	14	-27.169984235050503	17.212375894591677	15.29082228122027
Si	14.731732914910753	4.189426388867461	1.2872515362457906	14	3.025899912692048	1.1042318851338966	0.8608194309332415
Si	13.830225519828119	0.145795902169995	2.8442336915005693	14	-1.9725085499376958	-0.55100021141327	-0.42580280895397943
Si	15.023160719360787	1.5718897452516885	4.1822759936654235	14	-0.1993820184825871	-0.31799867687495864	0.635194911779499
Si	10.568070908755223	2.765398944399201	2.6890897956031394	14	1.7299820986303638	-0.1637773520091765	1.277455735199829
Si	12.349257313567481	4.097668450437639	3.917744171168008	14	-0.9412461764527937	-0.5416982094755063	1.1908215701058436
Si	10.956127448366743	-0.1294779131194725	5.400532776207146	14	-1.5481717852372645	0.7595042544612105	0.03199920548296695
Si	12.028949128496372	1.299403928091456	6.853768601076391	14	2.007220271533419	-0.5875579866288596	-0.5493541897873113
Si	13.519708128187322	2.711016580890123	5.604909439069066	14	-0.1243319684085287	0.41944575104991344	-0.70376012001508
Si	14.99305033956505	4.093666853122737	6.874416187221725	14	0.4772177162620446	0.23401969224509	-1.2949405369294962
Si	13.533434918976555	-0.08803514092784401	8.154468128298491	14	0.33617639148840556	-0.8056124003884901	0.3962147860402474
Si	15.08838347559589	1.285332737533317	9.420219278971182	14	-1.8182851681876575	0.14346793397479482	0.5522878209576002
Si	10.849347120017041	2.767612942913593	8.053427796097216	14	-0.8889984881315325	0.8120159952988508	0.49990746360181937
Si	12.211563005961263	4.043040087093628	9.44723006084677	14	0.31632463020101026	0.6446498944838117	0.8825380717935964
Si	10.916931474667498	0.146911101421689	10.951191051679098	14	0.5046102723429022	-0.6780130713391171	-0.36482133297070735
Si	12.470026832530344	1.3962130631318925	12.406165275381866	14	-0.9489659201765384	-1.0615638781249754	0.16615793842510163
Si	13.589850881121075	2.713738979063376	10.950764651965216	14	0.9984039046039416	0.1913912802580989	-1.475493065599979
Si	14.924268785717922	3.9720281347431134	12.401704478375091	14	0.6272285990555524	0.05309178219786574	-0.08305724337259555
Si	13.610908466991296	-0.167115887864145	13.874046290424095	14	0.929567958978149	0.4880407841072079	-1.5715048231281405
Si	15.402279264969762	1.062883286798355	15.81567378757933	14	0.9505211817846958	-0.2749293203255621	-3.6570605031137027
Si	11.093542956160038	2.634133432479219	13.831307919101821	14	-1.0503574584765778	0.8700257877530959	-1.2911815809514398
Si	12.327346928269494	4.083334860055572	15.112852259177178	14	-0.609183039255561	-0.08130452087585062	0.46288843209179537
Si	10.842426324660943	5.457457138010526	0.013234791119368499	14	0.3785376656326333	-1.3837305738344259	0.7838654773696135
Si	12.164577037489156	6.822936621764851	1.3900794672475756	14	0.34502896421620743	0.3100956133418875	-0.8658842513034013
Si	13.665389230434348	8.191236903626404	0.10991272624784099	14	-0.40171258054632003	-0.027400269396818076	-0.4444232679035559
Si	15.204167397904122	9.537905600002889	1.2788875418580854	14	0.14693892615699475	-0.45356277598508626	-0.11609517540490233
Si	13.632786052311294	5.620981428284656	2.688450196032315	14	-1.020603856380228	-0.9145323921764552	-0.3288924501164261
Si	15.025784717600068	6.9824265147460896	3.8071918453493425	14	0.22591402561279117	-0.28750022556736216	2.1876781835281203
Si	10.83204513162679	8.093853768971124	2.7148213783370787	14	-0.19022374133221964	0.8178665454548478	0.6858757685186619
Si	12.250086580111693	9.55779878665443	3.973733733598645	14	0.8219728577616563	0.2518600778405335	0.11660811091627186
Si	10.969919839111958	5.454521539980331	5.3507424096168075	14	0.993045721116753	0.9845055376853491	-0.7775408153925814
Si	12.34015531967498	6.885420579837707	6.747841072154457	14	0.2476218678308014	-0.537718909771513	0.017658865559841037
Si	13.721936392490832	8.239403671306187	5.437235951579074	14	-0.9428919409682204	-0.1693155128687755	-1.3611333862861765
Si	14.757792497424603	9.526409207717045	7.007059298217329	14	0.5520623350210232	-0.3840038355432681	0.26455362480610456
Si	13.671014426659804	5.477186324772113	8.179724111351561	14	0.04870779051648125	0.38425528964357863	0.9011297343635871
Si	15.166299823313512	6.84666740584134	9.718518678810332	14	-1.5290874988879335	-0.3668321944415952	-1.3030909407943656
Si	11.236058860530934	8.425887946174015	8.133951742065122	14	-2.729126481566508	-1.2533919891769671	-1.3591628911688147
Si	12.053352312121675	9.904346954118342	9.532280403777433	14	0.5542169212793073	-0.6141213612439694	1.786572898058419
Si	10.875619902387832	5.571912661210121	10.903385083757215	14	-0.12526707941346657	-0.39107797472112354	-1.8481009910327546
Si	12.262796571583205	6.969503323417635	11.985062757944414	14	0.6277191659506366	-0.04501465483462055	1.4969612808021513
Si	13.646184843320617	8.44697833202223	10.636344062943488	14	-0.1710466380808312	-0.6719599180838925	1.0380269515822116
Si	15.029015515432182	9.454675655850728	12.280131359951449	14	-0.3117501196154028	-0.16358169089431324	-0.3610531210134983
Si	13.450500174626312	5.357171205303043	13.606578869896484	14	0.6340014046898864	1.504007394932017	-0.9401858526187645
Si	14.790576075426607	6.847011805610245	14.944112772402478	14	-0.01730353880459657	0.2924028091918205	-0.6137176977087062
Si	10.851741518410385	8.039832205219946	13.64672604295747	14	0.5142190071453597	-0.19372378700453724	0.20103395365078225
Si	12.378072094232575	9.456725654475164	14.975535151317857	14	-1.132747242908063	0.28471983227415404	0.5898120746630333
Si	11.0178734069348	10.928378666986356	0.16908388654360498	14	-0.373670049040529	-0.17120656083174438	-1.3249779890531903
Si	12.753549842284547	12.335874922547154	1.135436838114447	14	-1.0406980728993134	-0.46849138480546204	0.9779502475610997
Si	13.779631553777001	13.92705105485755	-0.2168570544874965	14	0.48409053789333245	-0.509018175303764	0.3876440064555338
Si	15.294498537291336	15.384796876700559	1.147868029773036	14	1.1559139302847252	-2.4125503972651874	0.2747367445370831
Si	13.986812614757152	10.907862280752987	2.615699844848277	14	-1.426914344570569	0.662019510695136	1.1263367060133378
Si	15.161035426845956	12.428370860481772	4.187130390408091	14	-0.7453973709011541	-0.9375867222506268	-1.6404567256038716
Si	11.358091178646449	13.678919221355635	2.5509526882940428	14	-0.775191082240498	-1.3625706341601393	-0.7915011459493894
Si	12.289577753612857	14.888582409663716	4.138324023157483	14	1.4461467265863408	2.2327347473794594	-0.40467140854874645
Si	10.915963875316763	11.08678616069389	5.264035667797598	14	0.49485267054240833	-2.1657389418312967	1.3551403968954434
Si	12.261517372441558	12.29692494868284	6.753630268269868	14	0.8045595327598893	-0.0002671378427633854	-0.49039540235939955
Si	13.728250388254098	13.697352808986576	5.387150385186818	14	-0.9676241743743208	-0.9854283073847502	0.8673474673410977
Si	15.077969482583748	14.853798033004258	6.7660450599394615	14	0.013941561487970945	2.2019727577765473	0.4807972090887548
Si	13.51278733283122	11.050640584947809	8.330472810198197	14	1.4431699008466732	0.8923920900435961	-0.5887293822127191
Si	15.205790996814676	12.229717793779283	9.752466656031016	14	-1.6779426698400346	-0.6056822222516475	0.0062629554493487056
Si	10.807477948111531	13.495911744154851	8.062496990011727	14	0.9834817235468661	1.0160866814432599	1.171279884120058
Si	12.21802460162549	14.802597267360309	9.74654626000364	14	-0.26465929723476267	1.181974139588682	-1.3370863524478955
Si	10.578124102009465	10.99207622424488	10.958866246528991	14	0.8744666008620557	0.3108947128753895	0.022095307789756546
Si	12.224322197399763	12.34048331945489	12.177746228652543	14	-1.306605127545944	-1.7966161496599815	1.9821396533564386
Si	13.65051444041543	13.52874452212384	11.065810574768648	14	1.9515255023094351	1.3485591386074602	-1.2728195180865383
Si	15.127579449295135	14.981061947609339	12.30323894444611	14	-0.9230607485233864	0.9612357489853488	-0.5996954035136826
Si	13.731366386163243	10.831093932265052	13.59037568076893	14	-2.022205187560306	0.03478962608692366	-0.7499603115128208
Si	14.846057238198384	12.18223982563731	14.973075152968532	14	1.0406427941349303	1.3851649934925365	0.14332960850857085
Si	10.843525123923639	13.779795553666956	13.58596408372914	14	-0.9117077758717405	-1.244740991106265	-0.07706065443441419
Si	12.084266291378192	14.985440744671138	15.07254108622624	14	-0.05973706100832048	0.6520089121311395	0.3805852939095993
H	14.395077220808927	2.218364191463102	16.044161714262437	1	23.635879644777987	-16.18572891226697	-15.381419805165265
H	14.89279064683996	0.29931619915687047	17.06434762971101	1	-2.32067631952874	2.252647443862942	-0.05557341305287267
H	5.071832716767037	7.474096544832279	11.161507790555188	1	-1.8311376094620135	0.8200139326182355	-0.5127089969908367
H	12.673555615961197	-1.0143835993419628	12.845286460728676	1	0.13695429575673168	0.06947332263465722	0.13161539555944418
H	6.969713243276777	11.049159665941517	7.522584752296375	1	-0.0889319619186019	-1.3241161545498763	0.7102501040641979
H	10.467486496248021	10.507131829645743	13.388068696518243	1	-0.11357112131211297	-0.14239706860895315	-0.12229359611071532
H	14.395857860285114	14.529539090584134	1.8943856888547985	1	-1.6713619257731156	-1.391528479159903	1.6247891811144852
H	10.43381567884136	5.996170536530308	8.555961178894027	1	-0.13490795303242584	0.4481683399128836	0.26216378241102695
H	-0.041086892430426146	0.2732992566144093	0.31773174679991745	1	3.0851736605216784	-0.5291152200387016	0.632902514276055
H	7.212882440108654	6.472460656936519	12.405487955836351	1	3.833069888683484	-2.5577126896459594	3.776473175713192
