225
config_type=divacancy dft_energy=-23018.287740644726 dft_virial="-61.24466386917688 -13.612114098938958 -0.46489998948619315 -13.612114098938958 -91.5143809812313 39.520438936745784 -0.4648999894861931 39.520438936745784 -111.11109748720017" pbc="T T T" Lattice="16.249967316 0.0 0.0 0.0 16.249967316 0.0 0.0 0.0 16.249967316" Properties=species:S:1:pos:R:3:Z:I:1:dft_force:R:3
Si	0.858339523598436	1.21257256111992	0.822313346058864	14	-0.4200160222099223	1.486210975237548	-0.41421200906021993
Si	2.7018333157293717	2.815193087725788	-0.0255936985227	14	-0.19868627738295505	-1.3817191981424741	1.3356069384466822
Si	3.983549487778872	4.033258137798516	1.495825741405116	14	0.10357543515897329	0.13477939776641842	-0.16986701495994722
Si	2.5622948463868798	0.18188588416798798	2.466793788470748	14	1.9611180391483756	-1.1257386669158713	4.643649407439969
Si	3.8280210505974357	1.2915474022756799	4.053261847564512	14	0.8831924180975742	0.5450517021445753	1.3347227353270832
Si	0.14030221780634397	2.451583819062972	2.83326305138118	14	-0.8924129159966891	-0.5943544464321389	-1.8049107925333112
Si	1.558355615637084	3.800233606487076	3.911594632503624	14	-0.5180355558825874	2.3619366463748803	0.9862960554303002
Si	-0.009359981174016	-0.125758497058524	5.37110169695748	14	-1.1749146557111514	0.05200960396861542	-0.412649548357166
Si	1.166536403713692	1.1959650945229678	6.740990191663596	14	1.960520771382505	1.7990957236307321	0.9000056471176185
Si	2.648647172704104	2.8344330490279317	5.588640009416771	14	0.49834783111461767	-2.2624546679961144	0.28390324922447496
Si	4.115564222254056	4.005746943132528	7.009894650808764	14	-0.009221012120179072	0.8157644097450947	-1.5793873178186504
Si	2.789258139889452	0.20182459406472	8.238278430127151	14	-0.07136205660283798	-1.0392171162349082	-0.5863086865537995
Si	4.198845304748556	1.5352806620483639	9.546433298999785	14	-0.8467619125953321	-0.39659968050667355	1.0874945037207966
Si	0.10830603216114	2.722389524384112	8.218030970851416	14	0.20260207078554057	1.7614393151118435	-1.6796187733982393
Si	1.44202209962184	4.301561348152992	9.466808459151384	14	-0.35985267193952114	-2.7561176881068903	0.6919417773004873
Si	-0.02291245391556	0.155447187344856	10.84433443849602	14	0.8329653614474175	-0.17733787568870152	0.3950354200298955
Si	1.2834711685196278	1.4737420358226718	12.449977459022664	14	-0.3916263914859111	-0.19594162245369698	-1.334663857015252
Si	2.56164484769424	2.799804368677536	11.03177781148608	14	0.5202407929156785	-0.5783732270936945	-1.6507743141430937
Si	4.151314150349256	4.001733201205476	12.020718322403207	14	1.0069566864514143	0.5146314124387115	1.2096122362276138
Si	2.54823862465854	0.157007184207192	13.83514092300582	14	0.6030329553297668	-0.8965863341523536	-1.6069547090612781
Si	3.983175738530604	1.2545624766644639	15.138453301618283	14	1.6138655830513042	0.683635307342685	-0.2751113545822287
Si	0.195584606615376	2.93092535495034	13.824513444381155	14	-0.5516005645055246	1.1529275914553732	-0.6853980571501785
Si	1.755370219376268	4.396948656297911	14.992073596035755	14	-0.9647319379996863	-0.06975023067763716	-1.8837557940599083
Si	0.20767458229848	5.4161141064228	0.096232306445352	14	-1.5711173575563941	-0.3738657101553923	-1.2051981626139836
Si	1.3068548714873518	6.856641209051568	1.3385910576555	14	0.9495593312844284	0.3108278641370657	1.6416011245818698
Si	2.739939489085392	7.9564552469657635	-0.020084959602576	14	-0.32842785138507535	1.691474911361038	-0.3082773276594788
Si	3.99367321741674	9.381089881559484	1.42487838410346	14	0.7486395347098608	0.6547080584962309	-0.36025299303786823
Si	2.694455830567908	5.477896482158232	2.760641947445976	14	-0.23139022283417457	0.044101912445967985	-0.11856292229118047
Si	4.271710158193501	6.6321316606137115	4.078481796838943	14	-0.8344159790690449	0.8227220778519475	0.9861682714958887
Si	0.24119826487138799	8.454094246050946	2.6418709363333317	14	-0.6997365972995804	-0.678216959991005	0.5299575141415821
Si	1.645439190483528	9.549910792005408	4.160982880902275	14	-0.7195909296922958	0.7640214293981787	0.5010752596382306
Si	0.27046445600750396	5.453212781805228	5.364585460063764	14	-0.17002153838968814	-0.4115375453062019	-0.466110541279005
Si	1.472848287620292	6.8847374025409325	6.824303774092727	14	0.9459155608247147	-0.7337204389791695	-1.0569567145018017
Si	3.063313838673792	8.240374675910916	5.628273679700496	14	-0.32542814280805854	-0.41155168638546274	-1.0902049629492967
Si	4.383721182902688	9.664960560602687	6.96977348150556	14	-1.1294402872452884	-0.9513089684547892	0.5791882674801815
Si	2.811276845602632	5.504302679046732	8.185157286971148	14	0.4040150053605126	0.7593998675852125	-0.6689692083754962
Si	4.140182922737796	6.742176439277664	9.605989429212924	14	0.07997448809373801	0.4155901215118193	-0.3303651792438069
Si	0.012447474964055998	8.148838610019888	7.979481450652536	14	-1.4383148826706376	0.4543423351181552	0.47460984413581836
Si	1.245917494052352	9.434357274421332	9.341033712125544	14	0.8931302543810105	0.7806590519248569	0.9122672483894048
Si	0.1852496274024	5.546780093610756	10.84209194300641	14	5.374494065118552	7.408309850083583	-5.5743062295212
Si	1.250174985489144	6.812262548311572	12.342191425815635	14	-0.8551421732758225	0.00223531896533674	1.543942316985621
Si	2.369423984313276	7.84434672245268	10.731738414963456	14	1.6335471371665058	1.8391201201494776	-0.6255604659238402
Si	3.9049321459040636	9.191127763635444	12.196949217945228	14	0.41854817818264967	0.1944454962679028	0.5149404592981933
Si	2.977465261343364	5.586543763633007	13.286005777496232	14	-0.8202880124453633	-0.9069190922129646	0.4409988127276507
Si	4.067431819064065	6.662990348546796	14.912530006023935	14	0.7189468678095987	0.060322501689718186	0.723971321826232
Si	-0.47425529611746	8.097066214151111	13.451024195590211	14	3.102846152939716	1.833244887382407	-0.5158891971613279
Si	1.385732212839216	9.430148532886488	14.855606370515988	14	-2.1746200538281517	-1.2158883043140951	1.2190397081050008
Si	0.028778692116635998	11.063578997523493	-0.053202392992583995	14	2.4165109279003434	-1.502807460079104	0.2510236972798893
Si	1.5765393290636878	12.322967714480807	1.2446987465036519	14	-0.16929777224206646	0.4544112407407351	-1.3564143795815766
Si	3.025288915154352	13.664581266057082	-0.330020586220644	14	-1.447455419194296	-0.6823955203573095	1.7836343817880216
Si	4.008688187216723	14.915747499552504	1.2946348960657201	14	1.215380768123898	-0.17283767004684633	1.282610544256194
Si	2.732724503597088	11.064618995431715	2.715515788209444	14	1.0485818531424835	-1.607753037263184	0.8065997048314268
Si	4.129262944701443	12.263557833973511	4.217175267881004	14	0.9527531583131164	-0.7337924299281336	-1.273563853076721
Si	0.12683099490138	13.639182567142175	2.440956340438308	14	-0.06737195825650019	0.3214668408413064	1.695104797852023
Si	1.4294283749519399	14.910011261089956	4.058965586092428	14	0.1363559995487332	-0.1278906352821457	-1.2687425163803794
Si	0.046279906915968	10.981792912022064	5.4486140410548	14	0.9630550631098856	0.4553818329990911	0.15601004283700917
Si	1.4474008388034358	12.420191268932436	7.029882110607444	14	-1.0539464643929723	-0.40341516648932213	-2.2454542625087637
Si	2.7814906555124037	13.552943990596164	5.458624020921456	14	-0.08858049182133766	1.2777943497704927	0.9273732634768707
Si	4.191581569358304	14.943486193760915	6.907324857110171	14	-1.026383186918857	-0.058056072350007655	-0.037083566253559776
Si	2.722714523730432	10.97449667669718	8.14943985881058	14	0.8122247690508468	-1.3432724318481717	0.9267975929956896
Si	4.25895393385044	12.104064404766971	9.495440901562175	14	-0.8037902580481011	0.3766443036748763	1.5041876294149594
Si	0.084873579291468	13.87210959864972	8.159856087860135	14	-0.7026401465376236	-1.1229127650584965	0.915536408803973
Si	1.520801941169808	14.962807404899639	9.63558061969536	14	-0.27956913698630137	0.8599321424872585	0.26519614402560954
Si	-0.079494840109872	10.83068446595058	10.804408268800609	14	0.3514037627469826	-0.65545702147599	-0.03306132909072012
Si	1.457410818670092	11.858771148131952	12.137376837764773	14	-0.010646947130733194	2.605761505868887	0.5248734104815214
Si	2.841761784287448	13.582470181209334	11.019135336914232	14	0.1552988751054562	-0.8399875642978057	-0.5826965406895235
Si	4.124924203428072	15.195799436276447	12.23427539287008	14	-0.6452361064968054	-0.8199290861426706	0.8087748599322723
Si	2.712330794615508	10.699514729775828	13.672933749257506	14	1.2108666785133142	0.22112945572252762	-1.4618893473510755
Si	4.186137830307444	12.13011310237452	14.78933900380134	14	1.1007632069464848	-0.9609624404898172	0.2014309323122131
Si	-0.037586174401908	13.605723884438532	13.457442932680031	14	0.3460586918969268	-0.5817066651412665	-0.32710244659253895
Si	1.306919871356616	14.926244978438639	15.092449644146688	14	-1.3415143100302545	0.02529119170270061	-0.43614302322001897
Si	5.55326383056984	-0.075529848084768	0.127594743365232	14	-0.9628799708375835	1.5316624608660618	0.6031437699690652
Si	6.740535192578747	1.554520623350508	1.391192201857392	14	-0.13915387635811835	-2.0358431015099674	0.8556389108236753
Si	8.197572262000572	2.591479787686416	0.064008621257724	14	1.5001111419298647	0.2927707343631337	-0.39554809843073296
Si	9.697639244875162	3.9437045679200398	1.345351044058956	14	-1.0961835541502372	0.6929643058863103	-1.0576712246702709
Si	8.1054836972208	0.059978629363356	2.750615717612004	14	-0.46521039730642105	-0.896195269033159	-0.37849215706846673
Si	9.537447067074035	1.36060976336868	4.007615689373868	14	-0.22973751633438338	0.07773376980722897	1.3983979583542747
Si	5.2473581958461395	2.60113226827212	2.8031356119773156	14	0.6475783834434603	0.9857751494924384	0.08017837674562577
Si	6.695977782198276	4.18022284220442	3.873602208918816	14	0.2658216939500016	-1.054199718267007	1.4602078444716986
Si	5.417446603742712	0.070801107595812	5.512200163162308	14	-1.3114413766531425	-2.0537655053651234	-2.1556774353819614
Si	6.678785316777947	1.3938734464645322	6.659935354691388	14	1.611622293659475	1.092518700626898	1.7105627972578172
Si	8.09199622434852	2.7790206604803718	5.4703727472909245	14	0.4277877022611338	0.5378240679791072	-1.1832267821006581
Si	9.43911851484492	4.0929117678155515	6.988233444376536	14	0.24220583447390948	-0.6977432193448695	-2.544612393818741
Si	8.097049964183796	0.12439349980398	8.192778521642351	14	-0.015362097177352757	-0.18871450250929275	-2.479080061418807
Si	9.48047468166414	1.429704624396312	9.390579862472029	14	0.15259175831387228	0.7479342805205441	1.2950701206376316
Si	5.583927518895132	2.783261901949848	8.212863481244927	14	0.23114133983918425	-0.36821339221957866	-0.4156921943930292
Si	7.27681661394138	4.194945312592716	9.134122878290915	14	-1.1947682167722709	2.2561737148095253	-1.8742301059592916
Si	5.622894940518901	0.018866212053875998	10.795942035828972	14	-0.8423033588596632	-0.03290731988204325	-0.6487772898542453
Si	6.6075942099665514	1.6525729261352518	12.108403146040343	14	1.567103090820047	-1.2730545171127996	-0.05745109126817681
Si	8.05421505033882	2.9160078849542517	10.701692225396172	14	2.3076102194022794	-1.6194780488546552	2.540080049360384
Si	9.514892112439426	4.093643016344772	12.445541217945395	14	-1.057534184756707	-0.0740465476676046	-1.6430198604975272
Si	7.957430245004724	0.18968586847966798	13.551140244224088	14	1.4104800964747146	0.4945906749102852	-0.6501237777104069
Si	9.717837954248953	1.213027560204768	14.9836886129007	14	-1.899867882659148	0.09262535471099462	-0.5766539289661116
Si	5.332946773699511	2.6366709467922123	13.665897513409679	14	-1.1325749788516128	0.6598474409206749	0.3703777486780794
Si	6.695506533146112	3.877095951891756	15.13728330397153	14	-0.13525093848213357	1.035744581389516	-0.7566968645621408
Si	5.326528036609692	5.407144124464367	0.167764662570384	14	0.5032460438600317	-1.0886584430992277	-0.4918861292240214
Si	6.967855985362272	6.692955288277499	1.210687564911264	14	-1.335079861856052	-1.7490797547273598	1.6782717713210136
Si	7.891975376655876	8.050428807954193	-0.142690963001796	14	2.675496309914603	0.8366595255714063	-0.6095337380212291
Si	9.080481736180799	9.376734890318795	1.399414685319288	14	0.8618247331134196	0.23727342602773746	0.34823667521362417
Si	8.310590784683352	5.322611794486535	2.6107684988905078	14	-0.24914550484352116	0.4453424380555088	0.08405046135776877
Si	9.563252015171843	6.689364045500664	4.073590556676828	14	0.24980576468973517	-0.17115102495682918	0.01424238081042827
Si	5.520991395480264	7.8767654072481	2.550383620344252	14	-0.844867779305979	1.1689502055894718	0.4439982641941354
Si	6.614987945095332	9.391164861295403	3.974189506604856	14	-0.12878640837568525	0.1196299309990419	0.33432468143683497
Si	5.5259638854789594	5.390260408423043	5.588640009416771	14	0.750343663316055	0.08087334651366178	0.33547962194664543
Si	7.333187750560584	6.638322898161108	7.064267041448099	14	-3.953104768770449	1.5103731945941716	-2.037072861184594
Si	7.976101457450808	7.9960239173802234	5.214110762717604	14	0.4416696141056773	-0.4654531096486431	0.6441706404521361
Si	9.221742702058789	9.344186205784847	6.611575451958972	14	0.2837762366216597	1.7191400046058314	-0.15291777446846708
Si	9.409543574329799	6.665834092827096	9.37322489737854	14	1.2297707303797027	2.175061512611621	2.814907039694204
Si	8.209694737618308	8.176853553672672	11.10916015584487	14	0.847195400952309	-0.376673871386058	-0.8900755241501426
Si	5.616313703755919	8.159238589102127	8.377735649633063	14	0.6675178194222727	-0.08986887269726386	-0.3932179056790828
Si	7.003622163424788	9.622726895548404	9.716066707811509	14	-1.5739733413460146	-1.5135513378804069	0.5455214430865665
Si	5.606368723758528	5.252119436269727	10.614949899863364	14	0.10082203847162668	0.5033288334513405	0.6728587765038163
Si	6.764520144337164	6.663510347500908	12.189327983274023	14	0.23067751243942952	-0.3560687762398592	-0.1259949593296005
Si	9.421714799849482	9.738962911759751	12.525832306453752	14	0.55752747648953	-0.30258515759120297	-1.270906101507284
Si	7.96435273108134	5.3214580468071	13.715264914115687	14	0.5067527744061817	0.009301487716699704	-0.2675322503194962
Si	9.457822227225636	6.7207264824205435	14.9146262518077	14	-0.2452178843564629	-0.3658536317567468	0.5481961639511166
Si	5.456771524647432	7.892024126557823	13.641798811880053	14	-0.7254000850526383	1.3174842454870865	-1.1739265799366185
Si	6.648852876981875	9.429189784814843	14.888333804690411	14	0.0174585764554015	1.3894538542770756	-1.1665351663622567
Si	5.570196296513111	10.822656982096476	0.11797476271415999	14	-1.7219376243046844	-0.32789151881529244	-0.024226754100159304
Si	6.994700931368303	12.19576297033116	1.359992264610672	14	-1.6923524296068047	0.23833812074081073	0.3114187041396357
Si	8.113771180551959	13.469744157938244	-0.112709773303776	14	1.925092739844589	1.1058321410851568	-0.7591170459999962
Si	9.532880826258241	14.907638765861819	1.248663738528756	14	-1.969613742457741	0.7134961245308847	-0.14415004821623012
Si	7.983901441762487	10.915639295078629	2.92109412472416	14	1.4387085188951525	-0.8838477928436799	-0.4959744437935889
Si	9.743447902738968	12.1066318996029	3.9328658397202676	14	0.3838742518351327	-0.6734835550966123	0.5032095341644857
Si	5.512005163554515	13.556908982621268	2.723478272194284	14	-1.6734293515610468	-0.8496063264110119	-1.3572067942412465
Si	6.692272789650228	14.70183292980468	4.146439160154456	14	2.1189692505051427	2.1838737189858968	0.863258895660998
Si	5.588753759187984	10.868920639045127	5.496551444636999	14	-0.9524248281637334	-0.4033030662973636	-1.3338961249666559
Si	6.880658660744616	12.144104324233595	6.77518012289646	14	0.8933223159484256	1.6273134923178068	-1.0138529051411154
Si	8.423138058313969	13.378126842210635	5.301746836452792	14	-2.326708389720339	0.026085149025562335	-0.06076704579957178
Si	9.323353747685735	14.901756277693428	6.6637053471087	14	-0.9365050582424406	1.4619628809632315	0.7494861996917854
Si	8.017148874891024	10.861071904831501	8.158816089951912	14	0.9847963296970579	-1.7019133418503072	-0.7921930303910412
Si	9.505515881298097	11.964980934509327	9.359997423983316	14	1.249305731491656	1.812388852356962	1.4069635957283482
Si	5.556968823117888	13.435749226313172	8.125243657477055	14	-1.0967599959630143	0.22603486756283814	-0.766716204884226
Si	6.892082387767763	14.837503906925964	9.222766449999694	14	-0.5637978881443071	0.6291278745555456	2.1453395351107094
Si	5.412847862992283	10.712449703759363	11.065918992816995	14	0.021462044549404074	0.48813925744096964	-0.7917736831133251
Si	6.923932323707124	12.390811328025107	11.927996008898111	14	-1.6457148930941066	-0.2497779967522776	1.605975889265898
Si	8.2919520721719	13.67946623611854	10.620036139633271	14	0.47729484942164907	-0.7265503975728725	-0.39000685224474985
Si	9.371729900385468	15.151323275732555	12.070914471442332	14	0.26569596689984637	-0.05238061446631278	0.3769420376709494
Si	7.902749104986383	11.106868910453317	13.608340129176408	14	0.9795723579075809	-0.3734494482040603	0.500647170602426
Si	9.82083024709776	12.183152995693943	14.792166498114323	14	-2.087613335573277	-0.8619234635577131	1.2280115801196576
Si	5.430625327235988	13.622103851493058	13.517811561258972	14	0.4347651678789517	0.35131557383450157	-1.1518538978736794
Si	6.738065197546716	15.02426478128875	14.892542546225256	14	0.6214672662541644	-1.6202851188146499	-0.38530378639313495
Si	11.043039038836067	-0.18703712380715998	-0.050423648581548	14	-0.3072997934167585	0.7880211548985688	0.47455970758207555
Si	12.115504381757436	1.467112049157744	1.300273634724372	14	1.7061644073866402	-2.076063930475172	-0.7071665774537442
Si	13.710698673299891	2.6051460101991717	0.012024975813839999	14	-0.884893204266852	0.7592553714662202	-0.5821424674930316
Si	15.130149568319808	3.863364729509736	1.2772474310376	14	-0.1236215720085718	1.119080789689348	1.5706126495820492
Si	13.466396664671146	-0.047059905347136	2.6796683603103477	14	-0.3005007625081589	0.733711183000017	-0.004431300019275214
Si	14.832823916338956	1.260786214146492	4.063288077398484	14	0.08375581268807979	0.3866518169124886	1.0116515247660045
Si	10.932783010597008	2.683503352596924	2.6885895923668315	14	0.35242114912216516	0.5740208600077479	2.226589805664305
Si	12.414666280044996	3.986458231928436	4.223025256114764	14	0.02041689023676388	-0.10151083758689437	-1.174123526604142
Si	10.780098317695872	-0.030533688586764	5.58982625703084	14	0.15867087973283042	0.45075949985452884	-2.3099517250173385
Si	12.096573169834295	1.3673047499028719	6.789593843905752	14	1.5884815744465461	0.08564788909317676	-0.6002119385725002
Si	13.740208613945747	2.76030069813234	5.714317256638716	14	-0.23271331363192277	-0.4890255174448247	-0.9294167779853243
Si	15.010127309723831	4.415002369985988	6.888019895938764	14	-0.07069485477225958	-0.9669608292017228	0.9887720298536029
Si	13.294569510271764	-0.126879744803328	8.071570015432307	14	2.0425066351681953	2.0901672144877805	-0.3179829931325057
Si	14.988027354174072	1.3346585655650278	9.239162667021539	14	-1.1486415588866863	-1.2119460285267123	0.9279579328266723
Si	10.855936915159642	2.715792037653816	8.033512591978235	14	-0.3315512301279912	0.35808812235830356	1.4006253068931191
Si	12.101285660355936	4.062963078052164	9.497000898424512	14	0.7705504942481627	-0.9953651152260586	0.977158604233026
Si	10.921538033214336	0.217457062622712	10.803774520075283	14	-2.0957259441899403	-1.9291386311763743	-1.4920057324080978
Si	12.342126425946372	1.18047887567082	12.106404400060475	14	2.1779336943647585	0.7072398539553685	1.4474081108564052
Si	13.67104875304885	2.4986762243447402	10.699514729775828	14	-1.0521793437064346	1.6029748951362208	0.1452347975508006
Si	14.653229277562522	3.9617907815427476	12.306766497066755	14	-5.359968862722908	-5.781156023406157	5.9490733692018365
Si	13.735967372476273	-0.08880607138194	13.749438595381235	14	-0.9489389235706769	1.2270276181136368	1.1846005236732131
Si	15.299961726772008	1.4206533926013	15.11380210119991	14	-0.8201131772835933	-1.1483569375277458	0.08141790662046915
Si	10.904118068251583	2.8014293654091356	13.739217365939473	14	-0.23461310335298016	-0.8594004379070519	-0.5856144881173596
Si	12.405241299001716	4.154954143028039	14.765419051912186	14	1.3217042006490456	-0.9783017176583638	0.6547682223607224
Si	10.99383413780322	5.295880598251716	-0.106486035821748	14	-0.4964043326031177	0.8786410474598482	0.8101131202514092
Si	12.311950236640559	6.5315281129603555	1.463488306446276	14	-0.8761707294682497	1.81316069817407	-0.8142968228283541
Si	13.737836118717611	8.075128758274511	0.205009587658656	14	-0.5878084122870421	-0.40443409552769677	0.500419884892125
Si	15.022818534197627	9.74014915937382	1.2723399409081682	14	-0.020419718452616042	-1.0404260499564417	0.7681002308780616
Si	13.789381015043963	5.47071399660456	2.786869394694	14	0.4726617176347423	-1.6465988391031734	0.45699545869801594
Si	15.22321313113854	6.883746154534656	4.002480699702012	14	-0.07447875047192148	0.3797900510340775	0.14690395912464072
Si	10.758437111263643	8.098918710425135	2.6037810129446277	14	0.6857415568209503	-0.3948119909775746	0.3271343282985088
Si	12.297520265663952	9.354163685716872	4.048208107729236	14	0.4761450511224789	-0.7393241630244323	0.005198774957339416
Si	10.936439253243107	5.24240195581476	5.48062647666732	14	-0.5186688191229399	1.2713640153648025	0.4183036660667036
Si	12.302557755531913	6.762797647801668	6.7971338287403755	14	-0.4632015927197894	-0.03598364739760042	0.5402133961531208
Si	13.850594641923337	8.049860059098132	5.553215080667892	14	-1.2268664098100635	0.15602341258467395	-1.2117987041918676
Si	14.893143795015947	9.68595551837496	6.7977675774657	14	-0.0664417323516706	-0.0022301767546964437	0.1295335715817203
Si	13.514496567926509	5.599267488041436	8.592023968629157	14	0.6488335970607566	0.3064911807935719	-2.2110662430728474
Si	14.876048829399515	7.187084294422427	9.70415548176888	14	0.8101213477884337	-1.8507343171016506	-0.3869693484195269
Si	10.634986109563991	8.222743461373057	7.92868405282272	14	1.1678155768116905	-1.692687187519488	0.7312565487508716
Si	12.101610659702256	9.422121049032384	9.401191091129377	14	-0.8824617099655881	0.9438759029742412	0.2788204311170743
Si	10.750539627148067	5.354315480720052	10.88060436554533	14	-0.6643666727418993	-0.02610520364705949	-0.182694516512698
Si	11.838816188267902	6.92183607792336	12.15261930710718	14	1.516036054061798	0.38303092929012406	0.6916391582043059
Si	13.351850645060663	8.322794510137667	10.941899242261282	14	0.1218068858736113	0.26711290304178	0.990457903612024
Si	14.690750452095166	9.827541483599267	12.326835206702016	14	-0.955611198986993	-0.9413785883767812	-0.3235730903195717
Si	13.57850518918423	5.649772386459564	13.451007945622896	14	-0.7945882721072912	0.5242584020889419	-0.3951398069058935
Si	14.936872457063302	6.816828789127367	14.977481125385987	14	-0.02897147185796057	-1.8152440648149863	1.2476843924767704
Si	10.719323439934032	8.287060832009784	13.804525984582476	14	-0.2766907845803956	-0.9663882440469256	-1.3801816771610256
Si	12.251939107342572	9.223351448823072	15.140630797238629	14	-0.46132957093618954	0.5924083768153189	1.0496398629817245
Si	10.759802108518189	10.54395379265976	0.23234203268416798	14	0.14291823165734718	1.2778272599185907	-0.780834144197159
Si	12.038593286450807	12.144819322795499	1.52229693816288	14	2.0784193200589596	-1.2438963830085963	-1.4004990656218996
Si	13.622688850316434	13.632568830444564	0.09816605255595601	14	-1.8921298840876304	-2.4396763297243456	-1.7741955970472263
Si	14.899221282792132	14.993422343322983	1.2178538004976198	14	0.3800355915921516	0.8786670156235815	1.6962810785359905
Si	13.668400008376345	10.81089200575969	2.7733494218870876	14	-0.6071438956261516	1.4849665602625965	0.6633420872718203
Si	15.008859812273183	12.518422321357656	4.110851731732415	14	0.43958701879635736	-2.071486077452648	-1.2529754701151032
Si	10.881368114009183	13.711933670815908	2.5448423814894956	14	-0.7618676144714907	-0.7750481287846978	1.5125977149171639
Si	12.092640677743825	14.850828880125084	4.09775425807572	14	-0.07754607911885816	1.6244366825750929	-0.16189350314110404
Si	11.033792807433265	10.60708491568242	5.513500160547588	14	-1.3455758851044923	0.9569923967649765	-0.4839079894156019
Si	12.08485694339946	12.321245217945311	6.757483908489336	14	0.6783120908878504	-1.469436569907838	0.010144810261708275
Si	13.421806754356043	13.565732714873855	5.351244236897328	14	1.0718459854107794	0.15344947904867368	1.050711756789694
Si	14.79575774089116	14.959849910848128	6.804771313378896	14	-0.06743777855269598	-0.6172992474196723	-0.9500730381273942
Si	13.434839228143474	10.94711548176972	8.234768437186895	14	0.4721330983809198	0.4194426657235291	-0.5797914487882881
Si	14.961068658396828	12.294904020926076	9.537089567793084	14	0.9460153197111363	-0.4296728366818664	-1.9220058707972192
Si	10.520407590018875	13.523109050603987	7.889944130741376	14	1.2430129512205936	-0.5084890418288777	1.8050583739786876
Si	11.954304705982716	14.897498786256635	9.249692645842307	14	-0.857543071423777	-1.5120418419469477	2.1238409808657597
Si	10.995101635253867	10.943849238339203	10.998611628194123	14	-1.155582000587894	-1.0850069593235534	-0.8287302367640695
Si	12.352461405159348	12.348171413787924	12.243375374567039	14	0.09454314216929308	-0.09646735739089189	-0.8186988122469798
Si	13.623533848616868	13.629383836850627	10.611488656825056	14	-1.7685885305650473	1.4119877926344493	1.9311466644314095
Si	14.783619015306106	15.117523343715275	12.137636837241827	14	1.2229015082958632	-1.6842835297805838	-1.2511960081230287
Si	13.16840476403034	10.860795655387127	13.8835658256075	14	2.0261230378471473	1.1294557138772092	-0.8769196924480088
Si	14.952586175457876	12.16963302288703	14.888431304494308	14	-1.9297577533374657	1.6020261572730863	-0.8073530386902303
Si	10.756860864433992	13.612808870188308	13.273607052434123	14	-0.624081051922627	0.3568010270350374	-0.4008312056425733
Si	12.095614421762651	14.685209213240412	14.72271413780574	14	2.1867579849340393	0.772953192169841	1.1720345035315216
H	14.010934694427037	13.88749669270124	2.265216193909231	1	0.3999338898858416	0.571958062209393	-0.7333175467755023
H	8.341335722845225	5.771240892146664	8.545748936703383	1	-3.6763792742682315	3.8250377556633417	15.320707009687949
H	2.1928794644020573	14.254833703866346	14.006535828274599	1	0.33074287461533664	-0.36117062052662907	-0.5756481125648696
H	-0.6836881248795311	4.638317545826118	11.577359089143657	1	47.6502190506974	-173.72654409348038	219.90378539091247
H	13.18468723128097	0.12313900232718479	11.191448365336363	1	0.019611877161025516	0.08927263337352152	0.1654593691096174
H	10.076609607641796	3.6322089444396357	14.748259086426492	1	-0.42482476049019513	0.30331278039680487	0.34107717533913984
H	6.456684013496323	3.3674498519567795	9.992282027252145	1	-1.5192607343543278	-1.6153637661213545	1.5916761728068303
H	8.489070675701907	5.6824851956634035	7.975766708124098	1	1.8075060662434685	8.807774817145718	-12.57166294653785
H	15.532851383354725	4.766776787452561	11.414456416794222	1	-48.182118006466226	172.4522351340819	-220.50937608181476
H	8.598181081245187	5.060061072561925	7.918909697482145	1	3.090576581241437	-12.966950591999653	-2.787116476509788
H	1.939864223298474	0.0542781408289032	1.2415803777757115	1	-1.9164535688583593	-0.36886876696568444	-3.509254600242754
