68
config_type=vacancy dft_energy=-6810.41125239444 dft_virial="-22.958005548064325 -14.76792721250879 -11.562393952925385 -14.767927212508791 -25.188867440158166 -3.013910976169195 -11.562393952925385 -3.013910976169195 -11.026561271526388" pbc="T T T" Lattice="10.896843825099479 -0.07826394985405921 -0.049582424371480006 -0.0786126614100784 10.86915394810433 -0.0815767096362416 -0.04973498567723841 -0.08126068978859921 10.878590954589098" Properties=species:S:1:pos:R:3:Z:I:1:dft_force:R:3
Si	7.0260136967292395	9.510315461357349	9.959289217797357	14	-1.152265017614371	-0.9629717592975129	0.9449575669824275
Si	1.181731156615666	0.9437823777479021	1.5696564168328375	14	2.1996597914305425	1.009313618698394	0.9233584825194594
Si	2.65933426100111	2.594248338793739	0.3684987573760645	14	0.8205836895571804	-0.20058041067230817	0.47814048596144576
Si	4.14552547717714	4.12064490765517	1.6534343681664505	14	-0.10053253201257802	-1.1461434729576305	0.5746014155890373
Si	2.7415560870159874	-0.14809779784135427	3.058773540908591	14	0.257459431006752	0.8476263182039657	0.28867033559856153
Si	4.221928179100947	1.228198061178837	4.4337159632019825	14	-0.5579743345941717	0.3416124794667947	-0.34878226376255955
Si	0.2467820784711753	2.632614238021139	2.975456542663091	14	-1.1515667054094187	0.10205256947784958	0.1945928206027473
Si	1.4335706423727321	4.078214339352921	4.48668960745575	14	1.0763783298691363	-0.580655854396922	-0.5627362787576179
Si	0.27471278438470065	0.14675198917984267	5.843900047125564	14	-0.1163463723946808	0.04776779441143511	0.9823427238900405
Si	1.609437867032953	1.3786137011441064	7.382050374872067	14	-0.46260561050657917	0.5041047930369611	-1.6634735175403694
Si	2.8965681811790347	2.6342891432136435	5.820939570608926	14	-0.17624412748551052	0.34841331014911836	-0.24290568934205375
Si	4.334626305388289	4.010094626608183	7.089228563493845	14	0.11608334832042966	0.3391640158704176	-1.0632320112566873
Si	2.792733866756255	-0.0985872952283032	8.594157577187843	14	0.2722466290345196	-0.09174757935469607	1.126951200184853
Si	4.15846594507629	1.2994354731791093	9.947394884566267	14	-0.32032501296862864	-0.36487532618243046	0.11925146429591611
Si	0.11211294470739794	2.711319525938285	8.567411400841172	14	-0.047060997558926405	-0.14766680607312863	-0.5663378830900815
Si	1.595323766803076	3.9360086770846787	9.759911206196154	14	-0.6123521836731756	0.8623692932202269	1.3165946430463151
Si	0.3169101518338615	5.369564063326835	0.47254447817968076	14	-0.14738424159844438	0.38952476999722213	-0.7418484742277537
Si	1.6308651024267204	6.905410715356387	1.8138841831561725	14	-0.4557232757856067	-0.3954565670813357	-0.7527263066162362
Si	3.003647692520018	8.133426792691926	0.2659459579216555	14	1.4630712844667475	-2.005273687695535	2.221329324179282
Si	4.231169035335455	9.496602379416895	1.7904049981999546	14	-0.13023908288156893	0.2982227631945077	-1.018813595745809
Si	2.886404329044688	5.4412558900735455	3.099225171130431	14	0.46674997517212574	0.24275862211774132	0.9827880393314903
Si	4.399777611012413	6.83746208921882	4.474279834955916	14	-1.5311379553807516	-0.5506307435787647	0.38843256445722324
Si	0.2105389608410423	8.253290941455463	3.1174529779977216	14	-0.06856572245664494	-0.33385674026856804	-0.42106297629628653
Si	1.4159192992964853	9.548554952645693	4.536728626020892	14	1.4354295882803676	-0.7660004091630966	0.5137538941929449
Si	-0.00175663446344672	5.3767987383906215	5.7493523573290215	14	-0.39457339240386485	0.32081995074275715	0.5042881128462877
Si	1.4352967645750272	6.645566119941455	7.148812471181401	14	-0.1788586844855691	0.909824698335264	-0.3914618407454217
Si	2.881618262938324	8.171090909912836	5.94339944101758	14	-0.18139430855229913	-0.7440521685976526	-0.7896296383868535
Si	4.230527188127658	9.450860141056076	7.350286021289556	14	-0.33863282551127505	-0.09965809909319566	-0.7531875629106707
Si	2.8531862841630216	5.258838336778226	8.345593800610132	14	0.35961818713432364	0.6227024252499637	0.478334090192053
Si	4.199412309818232	6.731278330687362	9.66489929414066	14	-0.3056175192057856	-0.5459490179013071	0.28958127821348995
Si	-0.00563169162971008	8.13505375004548	8.563829479326685	14	-25.516595363907353	-27.364202702718636	-6.724592267370653
Si	0.9924646904154075	9.640075390246544	10.025250188065614	14	-2.2966364847853553	4.527628022757755	-0.926145046465436
Si	5.591573454913685	0.060416456527551524	0.4666065742148413	14	-0.2531466589427356	-0.8863679902784892	-0.8899752510426568
Si	7.068162026615835	1.3216636554281083	1.554206315453962	14	0.1012161889172054	0.34388302257501746	2.330908290260801
Si	8.308132371981158	2.6287587958799015	0.1480531191732393	14	1.2428933948232066	-0.5740720250036188	0.2639339884239489
Si	9.62731145757263	3.916621404293624	1.569645519596712	14	0.8851469723619507	0.23364688197366856	0.35149683675957194
Si	8.476744216828955	-0.17499980466462298	2.973678113727393	14	-0.18256287592030643	1.2725858046129366	-0.05943264213841493
Si	9.787971589219575	1.2261711752594755	4.388503330516868	14	-0.6163690215148429	0.6965769659716503	-0.2975457911637127
Si	5.560764788939387	2.6668086752596594	3.0859109280321726	14	0.4815065770465836	0.11625586948741157	-0.7775603557930144
Si	7.046559345720445	4.011135312658178	4.386982076353734	14	0.5181265730109208	-0.5479367394243136	-0.506897784746238
Si	5.489535005004403	-0.07268565468136456	5.923120774311451	14	0.9291869211697031	-0.27282255662623284	-0.6509221059123128
Si	6.891172386634677	1.2298904019491426	7.2655229598101885	14	0.7242207190422865	0.15233387645026145	-0.5268657599941041
Si	8.369254969409647	2.5192219577925954	5.8093154888337475	14	-0.7507121027084321	0.17458833565933515	-0.23612954127080352
Si	9.548140857672921	3.9454860033431136	7.219730594163193	14	0.24643350295182898	0.5920440511914539	-0.26179405746598966
Si	8.314124762126625	-0.20565481960954832	8.57747390867955	14	0.40380031806628025	1.5747567571370638	-0.7396995444011739
Si	9.869142921671944	1.102644465434124	9.796098747922047	14	-1.830015836210833	0.8435971390567618	-0.2044974896275537
Si	5.478335915438124	2.6000652834375844	8.497594988431677	14	0.50314628497361	0.18566002938895682	0.6485062953535018
Si	6.811944031383503	3.9285026608413656	9.95381989498592	14	-0.23785372449849485	1.0988880998365007	-1.010477300966293
Si	5.487051524891379	5.520759945398697	0.33349247604618704	14	0.5263836777465762	-0.14749608467987083	0.037504199083936
Si	6.975959422033521	6.881459680075929	1.668582616104647	14	-0.5052443069148508	-0.04942101513229033	-0.44725765440848714
Si	8.477095107832197	8.215374008356438	0.3999111302317191	14	-0.033145918455752994	0.057991794717003955	0.18728676772501449
Si	10.076582708558865	9.66106346702445	1.602272934280371	14	-1.6683817575965318	-1.2418819219902604	0.6637192684222859
Si	8.299851562249314	5.411871492860865	2.8300895921948124	14	0.49750168035375686	-0.3533454614847584	1.4548931126644205
Si	9.677290541339081	6.835277193375637	4.3073908431395775	14	-0.5696111572731619	-1.1617511106930571	-0.15222640424787925
Si	5.611136173206361	8.180125808384572	3.0873853240799662	14	0.6989488106294869	-0.11072927860175329	-0.11347007687303115
Si	7.027917443880382	9.521176736603735	4.4003726001048715	14	-0.8191922073579161	0.06944092670762335	0.3899541445856868
Si	5.811441539601852	5.412652824691071	5.69875648999786	14	-0.8056717929213855	0.0918522233412261	1.095208333902305
Si	7.072671302924609	6.782913794344904	7.177810016511622	14	-0.5545167121596366	-0.061176622877071374	0.02436225135053111
Si	8.339132829311264	8.119402049798278	5.748393400549968	14	0.5150954969489983	0.4659665593810767	0.09239729766909749
Si	9.699840192053784	9.622247511945064	7.078791190732745	14	-0.22264306542449877	-1.410282378475595	-0.48591345156531746
Si	8.274499142403105	5.421104721030086	8.663712455930323	14	-0.42389016370632127	-1.1742790784760109	-0.6837132118338854
Si	9.70698442005773	6.633150898823558	9.96200153986902	14	0.482676172856719	0.20925763401727587	0.7930134700987004
Si	5.672046274530403	8.13459933529904	8.588186981514628	14	0.6040752814265549	-0.11456819595526639	-0.38321373487838667
H	0.6415420851863233	8.806745218420499	8.67428059552493	1	25.422428374446394	25.41998916682917	4.70070300582565
H	-0.14006762454039962	8.84480490531277	10.87825531971643	1	0.2623090498616153	0.4868441916912111	0.0594598958548085
H	10.813580223310995	0.22720519377153492	10.801681531185453	1	-1.5453188867740284	2.6557772176617274	-4.413251631259371
H	0.1302470353440089	-0.028305570836246	0.6108903394122356	1	0.7900451290065895	-2.2630390802353846	4.070890960144413
H	2.125969038833618	9.007071289564628	-0.519877713014837	1	2.9584860454188293	-1.7869511076510127	0.3155723247843349
