224
config_type=divacancy dft_energy=-23044.9056050766 dft_virial="-15.806929945135689 26.656728900559344 -2.6689128449511705 26.65672890055934 -16.07422622399271 12.251079447613492 -2.6689128449511705 12.251079447613492 -0.5224427268569058" pbc="T T T" Lattice="16.3999889955 0.0 0.0 0.0 16.3999889955 0.0 0.0 0.0 16.3999889955" Properties=species:S:1:pos:R:3:Z:I:1:dft_force:R:3
Si	1.345881496904703	1.136388037476186	0.9843109395209145	14	-1.7193616338844282	0.8987226655628646	0.2845231427171627
Si	2.449535156345871	2.847431689354692	-0.0498395665573245	14	1.5616078674192944	-0.3424748281911723	-0.48668272627710574
Si	4.050600482020554	4.101948847565464	1.2705563474483714	14	0.152169582820304	-1.1677996359587055	0.49166681394021283
Si	2.7435049590902083	0.018105587851031998	2.212883315140806	14	2.247802967218719	0.09045765581557778	1.5922256180137457
Si	3.9844265264237113	1.282938339139974	4.017423304282657	14	-0.26474928592096786	0.5925467022815428	-1.216315622018304
Si	0.130576712382171	2.4400395627174762	2.586245464612359	14	-0.21932428267725168	-0.5039705813392494	0.5855810637481977
Si	1.3751882772396613	3.9359645589420085	3.9496749497422465	14	0.634497628016675	-0.017270114435434646	-0.23337305925707275
Si	0.121983118148529	0.0040507972818885	5.386822385406908	14	0.37688213091698997	-0.14485427396341866	-0.048818090934715605
Si	1.279625541362883	1.3355495038375378	6.950938535874728	14	0.43290857272727273	0.11365725334033791	-0.2622139189647698
Si	2.61350224632288	2.5958066581967354	5.466460731969055	14	0.6231472264703493	0.46459538891384167	0.24181271247045885
Si	3.9700765360526487	3.945673352427345	7.045353272521822	14	0.6145265674424248	-0.25286975089975566	-2.7499560342071554
Si	2.716133377456719	0.202343064226479	8.42795434478745	14	0.012677863223118162	-1.2233087713785746	-1.42669117262878
Si	4.128254429914246	1.4201734470543181	9.827398205751456	14	-0.4925749283392891	1.673320336695472	-2.0324240456552345
Si	0.00021319985694149998	2.7412745605868203	8.295639233571755	14	0.16738384144174823	0.08774231148696938	-0.708935240803474
Si	1.2902363342429715	4.179799595327102	9.524113209257674	14	0.3229647668008247	0.39799656202711003	1.3038350186740164
Si	-0.1636554901860945	0.14994509938585648	10.79152075881891	14	0.28539063365218065	0.0958009268919095	0.14506227638381863
Si	1.2926307326363145	1.2943691314698373	12.163379838292485	14	-0.8235628292916359	1.3610601097845523	0.047926945830752285
Si	2.667753409919994	2.814221711638804	11.051673784254525	14	0.2961483954222123	0.4329908480975174	-0.20015206452597145
Si	4.106098044781326	4.050452882119594	12.545220782074711	14	-1.163378363250179	1.6646641964141298	-1.6634066688020452
Si	2.4236395737219762	0.042311971608389995	13.625209257395372	14	1.485183047330553	-0.09918424438269235	1.3124412795121483
Si	3.944754953043597	1.4156962500585464	15.031229513946574	14	-0.47852975130691616	-0.6552564752610185	-0.3299622870401397
Si	-0.0649275564331845	2.7328121662651426	13.581044087030492	14	-0.288851855634164	-1.1338013960893238	-0.3188065181665492
Si	1.156133624226768	4.117496037133198	14.92649918422131	14	0.9756953881953296	0.015136097019711742	0.018995840326318035
Si	0.005444796346505999	5.417178765037578	-0.033554377484793	14	0.8446741750753717	1.0603351468924764	0.05391659278456924
Si	1.330203107425005	6.923911354010145	1.1739768122538718	14	0.3125335354064519	-0.1803625239873237	0.9854622459749762
Si	2.7086057825077843	8.332588408778618	-0.222023051021079	14	0.15211353272432476	0.04784184224465538	0.06954737046787747
Si	4.0817440611230085	9.570279178280007	1.2851851376323575	14	-1.5879650393877285	0.38380071822297646	-0.006533949950092313
Si	2.7217257737041844	5.409126370440787	2.565073078819168	14	-1.1769478857983247	0.5850635002472518	0.5612933744519509
Si	3.735425493505035	6.829693417230997	4.11162484107281	14	0.9981910170834333	-0.6689285849114379	0.28480879251823116
Si	-0.201621464710677	8.10931895859388	2.7651857445422596	14	0.19395698625707467	0.4288212865998333	-1.1730560036752162
Si	1.0102229221338044	9.564899981889482	4.163940805968454	14	0.2990282904913101	1.0653549729195335	-1.4271256894278852
Si	0.1869598745487	5.237156085833974	5.4644763333006	14	-1.5666757731158383	0.398412052646846	0.1182860142482005
Si	1.2601587544252246	6.751022670019584	6.9164165590392015	14	0.47772756644703007	0.6172768788033871	0.27193398262758967
Si	2.358121617684954	8.281797642859553	5.365059600009879	14	1.3934290402125566	-1.4668019582862821	1.5371255454503123
Si	4.03654569145141	9.453150456874146	6.682683915875335	14	-0.5516725554544888	0.3137319275961729	0.11361225899723532
Si	2.819043308403481	5.411783168658058	8.210720090553057	14	-1.034840580758952	1.7856295595164569	1.266079108379238
Si	4.14165322092357	6.854654200482148	9.770113044190174	14	-0.4197326864036419	-1.3214128944162729	-1.2374066560700105
Si	0.0021155985804194996	8.270120850694758	8.483993107185073	14	-0.006589228714475497	-0.03893579052619445	-1.586360669667956
Si	1.619761313129553	9.639995531499878	9.650983524126861	14	-0.48959681704696156	-1.4944071447771161	-0.059207670422901974
Si	-0.270829418271687	5.553134673810273	10.928591866843298	14	0.6837476646451754	-2.14069200513401	0.23237109951381107
Si	1.1029812598923523	6.694524707930086	12.347043315053089	14	2.2144099655416998	0.5043313074156662	0.03319965455694409
Si	2.7404873611150364	8.08650657390114	11.040210191946672	14	-0.9867051182867358	0.09926163465282883	0.5514236724594984
Si	4.350720280638204	9.471731644406047	12.053319512143684	14	-1.9101229933390906	0.8156361115896195	0.1728965483586777
Si	2.641497027538198	5.535094685915222	13.875669889334649	14	0.6971590642161319	0.028786609385441923	-1.5132800862691311
Si	4.2464819505828055	7.034562079762783	14.837611243865702	14	-0.42458899013233753	-0.9035429738170783	1.23406833292233
Si	0.0640419570274275	8.213278488836353	13.691498012915185	14	-1.3210305710551669	-0.23894721559115378	-0.99299172790503
Si	1.3956554635060454	9.678863505419212	14.64981496987823	14	1.545225555650907	0.5527909862687531	1.4870262727345673
Si	0.1583746937295435	11.008164613449464	-0.2636626230806535	14	-1.6622630411556434	-0.10924266550564367	0.3535845742795322
Si	1.294516731370797	12.281000559368211	1.3380587021538493	14	0.44476856734805176	-0.7598732080746518	-0.10134551551480885
Si	2.521268708212188	13.537338116357482	-0.189026273162133	14	0.9541261285540755	1.0600381842279993	0.3000605892773496
Si	4.1390292226842895	14.935371578267876	1.1491144289366941	14	-0.5461115117575406	-1.821452255721016	0.21239181140253638
Si	2.6613410142227534	10.891314691856525	2.78621053043449	14	-0.7456485678909326	-0.21397226984283144	-0.34787260670029124
Si	3.904935779762523	12.376989694958873	4.099538049183126	14	-0.5552937001873853	-0.5825849547186291	0.8104018553788619
Si	-0.162753490791342	13.561544500114842	2.5675986771244754	14	-1.047427169743205	0.8082364704782331	0.3790464873754906
Si	1.3165747165697446	14.78542647888202	4.083466059967535	14	-0.01143756201667873	0.0014395618687509093	0.373184367245553
Si	-0.191486271511458	10.916078675239731	5.641661814407981	14	0.16670532674776112	0.02837908919219845	-0.602602809409706
Si	1.337025502847133	12.078362295339812	7.003943300308185	14	-1.1885996208881717	0.9905098399394909	-0.19690013051704816
Si	2.6044002524303775	13.546341710316012	5.777912922982596	14	0.11458490813984736	0.09822753609306528	-2.0514196288710203
Si	3.9689449368119596	15.124742251198915	6.67282752248904	14	-0.059559911851762265	0.8334132479941873	1.8507140053696214
Si	2.8058413172621037	10.831913931714826	8.144726534835165	14	1.3410170582613377	0.26268108880144075	0.2764912668075521
Si	4.247974349581396	12.393127284130443	9.356488921734668	14	-0.7574872223375544	-1.2614799151825569	1.0626799949444516
Si	-0.1198675195681095	13.61166286648509	8.158289325734444	14	1.584641628650905	1.1937377177599555	-0.8718911246628632
Si	1.2015779937332984	15.155574230510455	9.577593573371999	14	0.8492111475233051	-1.0438566757851155	-0.6740090890240507
Si	0.12934671320750848	10.954963049148063	10.724297203926355	14	-0.3961643923759725	0.8440241996504384	1.8928443942560997
Si	1.5028293915916378	12.465024835886716	12.243165784755591	14	-0.6815830510761428	-0.08433251161138901	-0.6827369631438253
Si	2.832048499676913	13.79271874499541	10.784616363451805	14	-0.12652409280448695	0.2419332973099738	0.6960779144290096
Si	4.082022860935932	15.232145779130445	12.425500862407562	14	0.2723931820377681	-0.9032868917271916	-1.2167195426640993
Si	2.9321376325164494	10.946730254672321	13.351706640917419	14	-0.559508256028172	-0.580083269242125	-0.3300422484155963
Si	4.055454878763222	12.179583027420039	14.8755116184343	14	0.8289822050854441	1.6978188566279715	0.3319209550730285
Si	-0.007297995102997499	13.967559027676435	13.573582092037539	14	0.9487296355976166	-0.8947762760069694	0.7251447742943476
Si	1.0602756885480704	15.424796449860581	15.325428916536849	14	-0.4798682687365853	-1.2259269279260816	-0.07771602918051994
Si	5.32802842485804	-0.3359209745948265	-0.42549771448824747	14	0.07673360983769136	2.2829211805655576	1.0489973437622193
Si	6.643668342055041	1.2614051535888824	1.046352097890891	14	0.7609417594457053	-0.01710659213707323	0.12151532253030649
Si	8.30451162761832	2.7924425262527803	-0.15755469427976848	14	-0.5969090966782381	-1.2570445013947698	0.9324715082161924
Si	9.617412746653073	3.8539974139424995	1.5032721912945164	14	-1.5817522204921226	1.4377320130945601	-0.6116950091533456
Si	7.99630663442589	-0.024370383647312997	2.6102386485127753	14	-0.1820949347520395	-0.6484918971637089	-1.1372579900817308
Si	9.248478594210306	1.2183387824866994	4.079464462652634	14	2.1554473214558074	0.004047176884445091	0.3431911381333656
Si	5.549461076275281	2.660143815026082	2.6418742272850952	14	-1.2758151128950428	-0.07151478025885478	-0.06081126881107834
Si	6.798435038205574	4.093732453078719	4.098504849876409	14	-0.06824639117588256	-0.5426081236483067	0.17501359647928766
Si	5.335113220104096	-0.1250499160906875	5.171982529565858	14	0.9065748212105968	-0.40445543570185405	0.7368124502371796
Si	6.679830317790118	1.2147799848746759	6.702757502405827	14	0.7363982451701038	-0.3087360128485932	-0.6584330758840615
Si	8.219002084995784	2.7050633848847565	5.494849112920266	14	-1.2236895520764888	0.2619889472492568	0.3865988521428936
Si	9.547351993664298	4.052798080545951	7.002270501430644	14	0.4209267077143186	-0.8126034928645048	-1.0152762690463493
Si	8.161388923654592	-0.05882676052685849	8.123652548975947	14	-0.6697639370299541	-0.29019500105340934	-0.18930971339090702
Si	9.503334423200375	1.4996969936934974	9.288150167590421	14	0.6280696076057727	-2.0075496301249296	0.30924946258102676
Si	5.559579869485504	2.702258986766526	8.023465016202438	14	-0.6365185167983113	-0.8854233661838667	1.7222821524175842
Si	6.917826958092814	4.027640497426854	9.369920512721983	14	-0.5732538992907477	1.4222758134624898	0.024152963377471054
Si	5.516267498548388	0.078359147420499	10.85413591680373	14	0.373374629039244	-0.8107623243447466	2.1837348792986093
Si	6.846175406171475	1.3905386669394495	12.325083729788116	14	0.7434549008317821	0.30032232779894064	-1.2110173452850745
Si	8.285487640383542	2.779043735243457	10.687708828477394	14	-1.409880000492992	-1.093004639532406	1.1834065023625366
Si	9.583251569575447	4.060834075153746	11.986702756843963	14	1.0712101510651066	-0.15917018838600316	1.9041220335218652
Si	8.395285566708415	0.1346931096200415	13.557444502865966	14	0.11528759122384383	-0.02172969661323149	0.07629729326486223
Si	9.80146982314957	1.4208130466251425	14.96764675661102	14	-1.3021805124005013	0.38714829734980927	-0.23441769934864892
Si	5.397203578441059	2.6318866339868356	13.655778836882984	14	0.9003969693473451	-0.171078005565737	1.2288266205061447
Si	6.679945117713087	4.052158480975126	15.149047034890245	14	1.244966734153374	-0.6306689950844425	-1.6771708240229264
Si	5.517481097734056	5.419491163485944	0.11055232581866549	14	-1.2004112787289318	1.170950268418015	-1.6272134763208528
Si	6.80092783653289	6.683667915215065	1.4620754189378204	14	-0.619532509500753	2.0696521080277868	-0.329011749403281
Si	8.213737688528228	8.192991702448921	0.203294263588218	14	0.5537834329223303	-1.3079225619119879	-0.16627646638036045
Si	9.832170602549146	9.40214649109814	1.4968433956082805	14	-1.4290722732657692	-0.06398247011294898	0.032032886962660885
Si	8.1179945527725	5.443927147089238	2.7255961711071226	14	1.3969769084438288	-1.1234359849911466	1.0353571158177697
Si	9.359965719401714	6.7355082804298405	4.288859522147178	14	0.6808335738753196	0.8413222250694947	-0.7371184117702774
Si	5.085177387812676	8.036421007508883	2.593461459770379	14	1.3111325869041928	-0.9451126046332323	0.8243606432724779
Si	6.4249252888330615	9.362458517729031	3.979982129405931	14	1.9088040163098547	0.8812535475756504	0.2874128079864771
Si	5.387970384636593	5.354580007041754	5.539079883241129	14	-1.2729938390272442	0.1855659269342394	-0.6664145581293972
Si	6.751383469777484	6.780132650486596	6.743577075015627	14	0.04721140722015507	1.3246414313667827	0.4932940664973345
Si	8.155517727594203	8.48783070461002	5.55402027321603	14	-0.7738049993624061	-1.1708481955368053	-0.076657762230747
Si	9.460940451647009	9.778772238379798	7.288220709556182	14	0.20236192954863874	-1.1315897312929322	-2.161701535147068
Si	8.255524860488762	5.610272235470595	8.084276175397752	14	-0.7508072336052777	0.3750509897079805	1.617734325226531
Si	9.018337548636454	7.723296017617801	10.151117588533632	14	4.278445493997623	-2.7164948982391524	-1.8341249767334937
Si	5.257639672089353	8.210506890696115	8.281256443222702	14	1.2926784784688299	-0.8867875946667371	-1.279414146122186
Si	6.899819770175755	9.436061668340836	9.391880097986958	14	-0.8992988502651098	1.6804775225751685	-1.2486542134035303
Si	5.539670282844967	5.393169181148165	10.932462264246237	14	0.04104949620988819	-0.8242567706175438	-0.019485893000338258
Si	7.064820059459481	6.624644354820261	12.252644978394992	14	-0.6523768373024527	0.26217689504815966	0.24128974964834068
Si	9.625645541128813	9.505269621901846	12.315817736005657	14	-0.13694529688811116	-0.9029940428312266	0.8626300032996899
Si	8.303888428036492	5.11712456637591	13.603315272086379	14	-0.5931213443205958	1.2050801488797889	0.7032096463660363
Si	9.45229765744638	6.698641105167956	15.067539089582612	14	0.38555369783025334	-0.4654837058019528	0.42861842639007364
Si	5.644499012504204	8.328062011815858	13.426244590901966	14	1.5154711822229612	-1.2703268314786549	1.6753661651987142
Si	6.9652557262678005	9.493363229891113	15.188095408688532	14	-1.3432886298116888	0.2485762621256404	-1.0210885097330762
Si	5.386297585759051	10.906287881809419	-0.043919170529948995	14	-0.34105994893349484	-0.9476081194569681	-1.5066749167016706
Si	6.654754734615999	12.13158025963021	1.2393963683569216	14	1.86850913951143	1.1711976087498133	1.6837729082640027
Si	8.27007165072777	13.457224170114467	0.030602379465603	14	-1.5848894832037674	1.3937949084996137	-0.13120453292928452
Si	9.523342409774886	14.957527963400796	1.310162320872504	14	-0.5641334173885864	0.848013783775712	0.1665379477914195
Si	8.097642166429084	10.69348162460381	2.643612626118618	14	-0.5405432689656958	-0.3213819943657415	0.07001788274146457
Si	9.539824398715364	11.853797246024431	4.105671645067443	14	-0.27204839681433624	1.4517856747744893	-0.5747441119343056
Si	5.352759608263254	13.498699742284087	2.7431605593213026	14	-0.05673118177853535	0.23590405533422654	-1.7148400880684158
Si	6.783855447988575	14.822113254264954	3.888896590524924	14	0.7627888415076997	0.6228260954158628	1.2143289289374255
Si	5.277516458751899	10.937611860790822	5.330898422932252	14	0.7194274073939344	0.23476736967218909	0.39467932194305494
Si	6.695541507247807	12.560899171554409	6.635271547689345	14	-1.283670096758627	-1.5975511484633684	0.5791589568795318
Si	8.289636837599403	13.46066816780352	5.377605591591436	14	-0.3556419727567147	0.18228853898264663	-1.7885076548118304
Si	9.418759679950583	14.735931312093602	6.837139012234955	14	1.0221951134628677	1.6590514735002466	0.9090729071396526
Si	7.921719484474356	11.223414469015403	8.135772140843622	14	0.635855171625713	-0.046696671935061426	1.3046886256403056
Si	9.536839600718181	12.348158514304782	9.735771467233597	14	-1.068196815629893	0.16262549682575017	-1.1634323564619022
Si	5.383247187805888	13.887641881301363	8.107154160046473	14	0.8194791427116447	0.16467518198697223	-0.5863935330293645
Si	6.809800230579455	14.998216336098631	9.669302311834835	14	0.21499762664450645	0.4070640791596763	-1.2236237317802927
Si	5.674363392465009	10.794931956529974	10.795358356243856	14	-0.11097893292833966	1.4308609912369963	-0.5037507518343768
Si	7.010585295851362	12.065258704132408	12.281508959027072	14	-0.9795345626593749	2.150035401867428	-0.4432665276200212
Si	8.288406838424741	13.84662550882362	11.023351003259297	14	-0.4394677195095025	-1.4837655969675552	0.4824928530473924
Si	9.790514630500576	15.24465897073401	12.11780426887399	14	-1.3862898520701015	-1.1244942519409198	1.5733624467219476
Si	8.212196089562651	10.799687953338669	13.718393994867803	14	0.06466766968076845	-0.5172431412229178	0.056342687764660976
Si	9.4777340403784	12.188471821455598	15.014452325204177	14	1.727676331379255	-0.1205377882875862	-0.5588752498983516
Si	5.6630966000251	13.796671142343326	13.552868905936222	14	-0.8952182490115028	-1.525220813596963	-0.045492880424168096
Si	7.045533672400772	15.114131458318827	14.890288008519247	14	1.081475031945266	-1.427265300446769	-0.006395367373336332
Si	10.927624267492565	-0.0598763598225705	-0.09513633616289549	14	0.3063963070072584	-0.9543732117753418	0.40512135197977234
Si	12.192276618902556	1.312425519353883	1.3270379095488736	14	1.5977069574457696	0.21146492793462301	-0.06391587848515715
Si	13.917194661471253	2.78668613011536	-0.0896915398163895	14	-1.5305167763354037	-0.28007950139235077	1.9068330069714292
Si	15.428716047230507	3.966452138484643	1.297337529478023	14	-2.495435376581333	-0.18257290323105502	1.0294674848609067
Si	13.540978913914484	-0.058613560669917	2.8383624954401805	14	-0.7102038241684352	-0.4149553156082747	-0.7000885816179087
Si	15.073295485720031	1.1662524174369915	4.045959285134828	14	-0.8014914327813567	1.7921869065249625	0.027902149155310984
Si	10.870847505590143	2.5416046945666078	2.7777809360908035	14	0.15529964643705227	-0.6016432729042267	1.073834735375914
Si	12.27798296139304	4.087549657227415	3.977718930924552	14	-0.8400808954209272	0.4339928078407792	-0.7407845508462764
Si	10.788962360535612	-0.2039666631370335	5.5003103092557675	14	-1.0127049066156693	0.6236707035135314	0.11927409002273341
Si	12.36464050324526	1.0828748733838696	6.732359482542704	14	-1.0348341529956515	0.8732712939987187	-0.31983727428939657
Si	13.365827031442544	2.6611606143438027	5.313514434597022	14	2.8881375185331937	-0.9133555972714233	1.061522483329321
Si	15.079888281296222	3.922795367778622	6.849898203673454	14	-0.9345903561105263	0.2976985148197295	-1.4193833199773231
Si	13.85029910635861	-0.10005633286154549	8.0181350197789	14	0.251660045846626	-0.027552993052834873	0.6150114779058047
Si	14.932944379896542	1.522509378386238	9.480259638683709	14	-1.0437839135045552	-0.7493460744518375	0.10888065387656681
Si	11.07064857152232	2.6053514517921164	8.079733378445999	14	-0.11305124381637902	0.37598070139174605	-0.3950428762353239
Si	12.132367459101994	4.117791236935117	9.48772163367666	14	0.4971532955828768	0.629097278402236	0.47169369648170645
Si	10.91434027640621	-0.056481562100501995	10.585832096837349	14	0.96778229735151	2.1070514060146603	-0.10684279579981745
Si	12.238803387682788	1.3884066683700345	12.150013847261153	14	-1.54840344182661	-2.35293109288053	1.2394483708047401
Si	13.43173858721546	2.7006025878779805	10.95880064657301	14	1.5349367634912705	1.7983806992411993	-1.6720149865244334
Si	14.818669256575898	3.9960869185995116	12.350142912973238	14	0.39537223482683487	0.8907928625344638	-0.5864948345789783
Si	13.493927345486394	-0.019942386618528	13.630818053631833	14	0.4906530271124784	-0.14474654465050446	0.11452782960174006
Si	14.988851942382201	1.3273987093067745	15.053517098991458	14	-0.47092982109109055	-0.3967498330573702	-2.4042238726858876
Si	11.087802960011611	2.7927705260326903	13.613122465505688	14	-0.2691813572718391	0.18054070158601	-1.0862418612088205
Si	12.515028402333996	4.052207680942113	14.989721141798965	14	-1.4008453935085237	-0.3762658369717505	0.7574322006837032
Si	10.886001095421983	5.1015773768081765	0.008511594288664501	14	-0.3213637395179685	0.6676075509979459	-1.104272765708487
Si	12.195851816503575	6.7052339007441475	0.9193341831207436	14	1.1438713871862156	-0.12800762057421242	2.3924510385354614
Si	13.642626045708594	8.179297711637679	-0.16006389259607998	14	-0.11510761385143346	-0.5180532965092965	-0.5563383402789615
Si	14.894256805856157	9.536970800630145	1.126580844056877	14	1.9125372612347098	0.04157554435839048	0.6628327513078988
Si	13.80977473355073	5.335916819564876	2.5418998943685267	14	-0.4404573379472274	0.36124466835984936	0.08518277614076197
Si	15.028261115938388	6.665119527661155	4.224915965053723	14	1.261128187974761	-1.7959903426250572	-1.7724477596505894
Si	11.059102979269488	7.824139549951131	2.7267605703258027	14	-0.6277024537660556	-0.02269746065573523	0.5175714713723008
Si	12.33526812295432	9.248593394133273	4.131452427768369	14	0.2120483117317646	-0.00995737668386948	-0.13421349748545383
Si	10.780106366478043	5.273924861161885	5.471626728502637	14	0.9361600159084768	0.7787759743883805	-0.034700408732314524
Si	12.282148558597896	6.636829546643917	6.902066568668139	14	-1.6146184026890438	-0.16280753108241666	-0.2446316723434692
Si	13.714671197365826	7.80216356469716	5.532421487708956	14	-1.1317853924077956	2.8885861764115597	0.9866228429164913
Si	14.844860039001711	9.542333597031675	6.902788168183941	14	0.9789198113773274	-1.8234512901074311	0.11098793179696019
Si	13.7154911968156	5.349660010343104	8.153812128738672	14	0.05485273223163516	0.2625142240661631	0.999642920257721
Si	14.8995704022907	6.930389349663367	9.66039711781028	14	-0.45565231327877065	-0.3611071142252214	-1.106272057205434
Si	10.689463627299913	8.088130172811693	8.38928317073606	14	0.7673029311182837	0.26807835308949557	0.25568871077276606
Si	12.250578579781557	9.477947240235341	9.61982354503541	14	-0.33083594862792604	-0.24651346432728558	0.24710276166666353
Si	10.652350452203097	5.796805710305412	10.90118748523182	14	16.90531675663288	-15.977703609029643	1.767178536407478
Si	12.069932700996125	6.742002676072059	12.384156490149905	14	2.053056908738891	0.7136671030346746	0.6887680048932966
Si	13.581536086700355	8.146940533349557	11.065990974647598	14	-0.502642348330861	0.7350093340761598	0.701399845331184
Si	15.148932234967278	9.657363119846112	12.282952158058675	14	-0.3935886590662482	-0.6256967345058081	-0.572061420643263
Si	13.67198202601054	5.500162709354808	13.779615153788004	14	0.41451334260374123	0.9362366348470171	-1.423909493782912
Si	15.212662592203792	6.823248221555765	15.07818268244069	14	-1.8254611231361908	0.5747286853023847	-0.6572593663054139
Si	10.985745828492616	8.13096694406794	13.890659479276534	14	-1.0043390441249713	-0.13602329852030606	-0.8598701788490428
Si	12.346879315163132	9.666907913441493	14.967695956578005	14	0.7173134445997086	-0.2468729048510423	-0.2209811029455551
Si	10.9748726357886	10.798638354042957	0.0342267770336085	14	-0.6748876357119451	0.7353564332943797	-0.8317150329302294
Si	12.190653019992002	12.348076514359807	1.212582386349279	14	0.30325364497444146	-0.6706224290963515	1.58233380451554
Si	13.596476476675257	13.634508051155821	-0.0773587480917735	14	0.6881671375799779	0.5801310918010798	0.4257169340362866
Si	14.83149404797038	15.250103767080516	1.222717579548498	14	0.5921993459527909	-1.561199318783923	0.5107585564949725
Si	13.545013311207377	10.700123620146988	2.5515430878978806	14	-0.569110048846265	1.2762285466305223	1.146034200981524
Si	14.814995659040907	12.087677489089256	4.152444413682608	14	0.7512358368621462	-0.1328546683237556	-1.8493140385228004
Si	10.745666389587493	13.58297928573196	2.691926993699361	14	0.6507889226567292	-0.9887861709328637	0.5686912157896129
Si	12.069096301557355	14.869624022384917	4.175010798540417	14	1.1526378278857925	-0.4000678444730213	-0.7649215733707625
Si	10.888362693837337	10.617976075268528	5.551363474998759	14	0.403464274600937	-0.04385765744055392	0.01858652035935046
Si	12.063093905585001	12.132482259024963	6.9317177487720025	14	1.1131816456428	0.8605075558579076	-0.15688241887213542
Si	13.620174460773754	13.501618940325283	5.415259966325104	14	-1.4234446379410293	0.6485507754755403	0.8890020876789808
Si	15.179272214608952	14.955543564732341	6.518044426349511	14	-0.888588653943501	-0.6445871595140001	1.138238095429771
Si	13.577895289143354	10.821385138779716	8.264266054623365	14	-0.7531788211525823	0.8922807611832336	-0.028389887834543073
Si	15.061733493478203	12.272078965354659	9.438816866492079	14	-1.0688871574083532	-0.6898059601110403	0.9972440789940228
Si	10.888083894024414	13.705487203528346	8.391857969008354	14	0.7582886358658445	-0.5687611498543209	-0.7262385224975386
Si	12.577381160494886	15.054599498265162	9.607392353376824	14	-1.1123820318882343	0.087891949816602	-1.6432641155029415
Si	10.81090554581159	10.856710715076023	10.901794284824652	14	1.3444595111744841	0.5897663089883347	0.027421866681507322
Si	12.211185806214369	12.389650486463397	12.233899790973135	14	1.9199867817893066	-1.7039190611105546	-1.4247818698180383
Si	13.810857132824433	13.684938017316982	10.907550680962071	14	-0.01989521296730584	-0.7504156542650191	0.91166432419183
Si	15.092827872613672	15.228718181430384	12.22979979372426	14	-1.5074812153300692	-0.2796982064733728	0.09512292641898647
Si	13.777040355515712	11.047475387071678	13.594393678072828	14	-0.9656829898576091	0.13455314049824538	-0.3306050633701767
Si	15.042414306441504	12.53662718784107	14.881005614747794	14	0.6793436183422938	-0.8759544995108253	0.3551511487510984
Si	10.90515628256873	13.624700857736512	13.46179976704421	14	-1.9370121269982632	0.3992934275505927	1.3787536852662154
Si	12.164347437643219	14.766517291570208	14.95565836465531	14	0.4787585796804094	1.9854095851026023	-0.127445062730164
H	9.870113617089135	6.491628964074459	10.78842280089766	1	-15.413020746434144	13.364263754232667	-2.227991315174318
H	7.849238093109844	7.570308720273279	11.272939155784012	1	0.5173860946787181	-0.2960496649779185	0.22935930674178961
H	1.8906514113605233	14.628435944223696	14.39940681790374	1	1.565088886912243	-1.5627188420281304	-1.6073370324223841
H	15.874840027878395	0.4274788331589039	15.856185040396014	1	-1.1704998107659252	0.11764452347082355	-0.42728402272891675
H	6.141685998888479	5.908684795233813	13.134050906965841	1	-1.3265839014361547	-0.8401063493635967	1.4047066794783218
H	7.950657265056916	8.542814947715232	10.135931198723796	1	-3.9422487907771875	3.4323348423798845	-0.44878334830546296
H	10.51519242423703	10.484014405157687	13.15636473199312	1	0.23336328905685622	0.1601826896610775	0.15421926798152605
H	0.3693687521511487	0.23672892115334385	-0.0137628707650236	1	1.311970510128029	0.8957085587960549	1.8325653442462917
H	0.2952276819002923	14.018189073703342	4.960189791680172	1	-0.29922549426936546	-0.4507908673394347	0.22972260392352653
H	3.714105507810885	1.003890886382642	1.3209141536579538	1	-0.22101761264110117	-0.256052779286099	0.29772011210441873
