71
config_type=vacancy dft_energy=-6855.282567386429 dft_virial="-16.94428534769252 0.7212103783780492 -3.7284319066726828 0.7212103783780492 -23.973413187041018 3.8983381407881046 -3.7284319066726828 3.8983381407881046 -8.149558460123624" pbc="T T T" Lattice="10.83278821091328 -0.05414330420092439 0.038619623744757 -0.0539049783320928 10.916494755843361 -0.015133692670806598 0.041902020938210396 -0.018307759923882 10.94338224704518" Properties=species:S:1:pos:R:3:Z:I:1:dft_force:R:3
Si	7.066466007599702	8.550554775095593	11.14729169381869	14	1.6602961455857304	-0.8863613054046566	-0.5397585676219866
Si	0.4058722045184261	-0.6909987741921296	1.8396991295771357	14	0.19714309996980217	-1.2473162101949253	-0.04971952045995952
Si	3.024487438000265	1.807242396140483	1.5513584105724167	14	0.220354267468503	0.2413571126077286	-0.3450672736854777
Si	4.289813640597418	3.2481075174255514	2.8662531439883314	14	1.0925223001743463	-0.6892503442513563	-0.02014743839921236
Si	3.0032861853688866	-1.2303800471306143	4.396733125151696	14	0.8340362268132591	0.6598358709467342	-0.8253949989427735
Si	4.099992502570068	0.5254056273303188	5.811383484164693	14	-5.514179903167409	6.797618086226159	-3.0546160737917183
Si	1.887031730426495	0.6963405235521689	3.1984967379300424	14	-0.3474584016332154	-1.3876101146519975	0.6896290680650142
Si	0.6960967811863182	2.2921748744461774	4.6516248084659	14	1.9973652248412916	2.2742560414155943	-1.1863049093899396
Si	0.22368724398832082	-1.207138941721918	6.958605135863539	14	0.9041813792680711	-0.4968326787494543	-2.084918302976698
Si	1.4892062738793468	0.06739530580736514	8.239794091630243	14	1.63098271672019	1.315823054339739	0.22431454099312706
Si	2.594958141102091	1.8160842858741355	7.014153479391165	14	1.5677864906141423	-0.3822202597826814	1.452420737788566
Si	4.297644811987344	3.011256019082496	8.489048284847176	14	-0.5004355686345779	0.7632189874277605	-1.097538526653955
Si	2.934510756121106	-0.9927193241329352	9.705226276794235	14	0.07198066454286563	-0.6147692797846467	1.9031337006368
Si	4.369454562865113	0.3709238824530795	11.168355367425788	14	0.3623520434212371	-1.1447604754059229	0.005316531581002198
Si	0.10839927153984191	1.8034855138081742	9.84801705450588	14	0.9427600432652968	1.029928484044809	-0.604112305343165
Si	1.6709622478455555	3.168883665428312	11.198050770682205	14	-0.13471589146501076	-0.1526627208207084	-0.853048779324158
Si	0.22198538062498244	4.622500303995275	1.4818972528020433	14	-0.1607246786625647	-0.9994223194212523	0.3683141795481285
Si	1.7170858865602965	5.586476445047715	2.9833231439560284	14	-1.1262354044637237	0.9129678745891452	0.4251561759659623
Si	3.058576703638414	6.896320836643208	1.6542534378416527	14	-0.3959239940285387	1.1158792493446994	0.051916787066558064
Si	4.469011944671302	8.145368299099758	3.0049891320316284	14	-0.068132748320732	1.3368665229430228	0.6451322338418715
Si	2.661228982128333	3.957694626087142	4.388777374330337	14	0.30599161502986716	0.6919168375788819	-0.3249159786282851
Si	4.187940164665947	5.397675775058726	5.660140804504755	14	-0.31326270087524594	0.6463609650743701	-0.3450870711964428
Si	0.2623252838229421	7.23303845712253	4.268504058025662	14	0.6459758134974121	-0.2892254372371815	-1.026725915258033
Si	1.8089020108270741	8.20468110805552	5.731637481854832	14	-1.711318702221941	1.4851066855025445	-0.3780314149950961
Si	0.142084466500381	4.230796572378887	7.049384542600899	14	-0.15982273491625676	1.9178733332161448	1.1641172989191895
Si	1.5797917700234305	5.689323807143185	8.351758501507925	14	0.07163793620368988	-0.39757130120715756	-0.608104717684291
Si	3.102104756981698	6.937043144530701	7.072333157170574	14	-0.6121071573361654	-1.0877608702319639	-0.2742459205314668
Si	4.1247935591202065	8.285162670660549	8.558946012277271	14	0.3583873990175688	1.7667165087814474	-0.782187059816621
Si	2.9957085060394455	4.539060250718524	9.729128194839236	14	0.22209747687556336	-1.1456477638519058	0.7629927301595875
Si	4.4093232308224275	5.809507209597345	11.074931626843801	14	0.7107064752585242	-0.49102686582602795	-0.23625166877351053
Si	0.4502863967740023	7.218437747758383	9.63347502408427	14	0.40792539944192585	-0.5840358294507887	2.4803810407108022
Si	1.6746942142915775	8.510874601234535	11.461718262466432	14	0.20775456584711732	0.28191989858051275	-1.0291394118220558
Si	5.819152907488603	-1.2147393703388387	1.6472824061783282	14	-2.080845929260115	0.8914114704744914	0.3329578818486442
Si	6.874183613326963	0.18377741065366185	3.143888698284896	14	0.5998247301112861	1.373937490780514	-0.5478071557161781
Si	8.525332315077382	1.5678202283122578	1.8041105775641553	14	-0.8155265825029812	-0.6516525569337669	-0.4142318065711851
Si	9.954098065321633	2.9368257669469835	3.0266789526941116	14	-0.46348081475755754	1.7484158953336972	0.23658077025448954
Si	8.269323750077882	-1.0911944898347485	4.439675113517536	14	-0.39834674657171415	-0.6154603928947026	-0.5653611201789571
Si	9.806931841318118	0.10112166614524787	5.598165245614502	14	-0.6506752798015787	0.8924352846129745	0.8073923766016285
Si	5.410790197640886	1.6156273143004731	4.390517153172807	14	1.1863866705391202	1.171140530211706	-1.432122632617593
Si	6.86458774720828	2.942343010810435	5.6769763605389	14	0.8936326483605674	1.1170480738232387	0.19258118780026343
Si	5.621093277495505	-1.3595905835164737	7.0799346690868985	14	-0.02136125722085427	-0.047547964906562455	2.7376101006808686
Si	6.978974414552813	0.11570395941953045	8.386313585889699	14	-0.5842597727241735	0.3429754223970052	0.18615908093159755
Si	8.225618035632378	1.4192489649820421	6.961578792726915	14	0.33239275289927567	0.4821969188250435	-1.091251659925129
Si	9.525439741144098	2.867380858667667	8.213716908382452	14	0.2550140527367592	-0.059282489587718284	1.3698993127646892
Si	8.51157766254759	-1.0326573232520924	9.70672122997145	14	0.358998550752168	-0.610310726048978	1.1739389212421552
Si	9.9494463776818	0.22285851994442912	11.228598730569397	14	-1.5002003592844737	-0.28720994777671743	0.20517626143207285
Si	5.717289181251766	1.7017929488771342	9.760674956776713	14	0.9460672560386033	-0.4355257008326515	0.520146433350429
Si	7.373470892032146	2.997725609529284	11.155622266233758	14	-1.547830599561281	-1.8154047588974958	1.0023749767709103
Si	5.90743530910025	4.454032080515832	1.3557427040342471	14	-1.0473821754001025	0.0858376366658037	1.2048973432915262
Si	7.160846301555227	5.741208432087228	2.917486705990703	14	-0.20171889610806967	0.32996382970333177	0.08853189793078688
Si	8.570278407340215	7.131710964090565	1.6022496499631937	14	-1.501431661622293	0.15169315700448055	-1.0973004423013093
Si	9.56670044883527	8.710854921070535	2.908425989777487	14	1.730753430226408	-0.4142042957442595	0.7578047538445926
Si	8.452030860920608	4.489154813785187	4.3655731011013685	14	0.5005826358588903	-1.4444929916444216	0.4158752570918237
Si	10.041507327613832	5.776257500997126	5.788780442104824	14	-2.260444320746291	0.09947760749972126	-0.982697793534753
Si	5.771713059998269	6.8430008399891555	4.583890429945152	14	-0.8253502617102029	-0.31918884152765525	-1.929122176102325
Si	6.931997135907895	8.399704249819823	5.7761491710567485	14	1.0996810287172345	-0.2957635009557861	-0.8722557073972603
Si	5.664607247946541	4.588938605166766	7.150018724014446	14	0.5927534191492827	-2.1553421632482137	0.5387589218735129
Si	7.0629626173278774	5.94693240536207	8.536028813390306	14	1.3448886286524169	-1.3020285600760804	-1.0835982507186441
Si	8.485396482557034	7.193377782650741	6.9417424973443	14	0.6747721930830706	-0.7676114637567015	1.997392992778749
Si	9.978511300685218	8.479380920967843	8.509068741128434	14	-3.2431619117920096	-0.030480453570355476	-0.6689980047550819
Si	8.556077435456062	4.341878093242489	9.897738330540573	14	-1.3967380527595872	-0.4292460331987218	-3.4801134354336636
Si	9.724952075637663	5.796189126727274	10.91822803488941	14	2.4186878827749125	1.8580673665852447	1.9437702773322727
Si	5.707593651587935	7.257295697371972	9.740081435110856	14	0.14443235558038237	-0.12519020336439415	1.5301326532005737
H	3.2244439252493806	1.2638778312942995	4.815273432897926	1	-1.2221263200418386	1.1122275084584932	-1.2355971121456903
H	0.22144589752190003	1.8575930691287736	6.151102927291889	1	0.15318568364282648	0.31349050080661106	-0.44295773787107146
H	1.619812099897275	2.8191209535286714	6.154950806774116	1	4.217486129520104	-2.4105223093886545	0.9448169275214154
H	1.024643074262928	3.364523204553365	6.198054206751118	1	-2.0264577957598306	3.201212014499005	0.2680613837943826
H	-0.8394302918992577	2.6382543683729662	10.713540779143987	1	-0.41557520910096246	0.42997057067793953	0.36436033378680477
H	4.690133935671471	-0.47228279116775523	6.177332855755615	1	4.8166850525964655	-8.11000485830552	3.0356235759023162
H	2.5559571959672036	-0.7511424737905914	7.250845732721865	1	-0.15774939558608933	0.31594719194001253	0.29411799355089135
H	10.755117810261062	1.089616122603441	4.630594717140319	1	-3.273481157058791	-4.832149479765561	-0.8130560074008508
