222
config_type=interstitial dft_energy=-23308.11033238938 dft_virial="-37.96205713766964 -3.2366724493955084 0.043900612753823176 -3.2366724493955084 -47.99534263431614 8.133586253844694 0.043900612753823176 8.133586253844694 -47.544363612390505" pbc="T T T" Lattice="16.3199774331 0.0 0.0 0.0 16.3199774331 0.0 0.0 0.0 16.3199774331" Properties=species:S:1:pos:R:3:Z:I:1:dft_force:R:3
Si	-4.298257736465279	-1.7612846045350183	2.0317882304886505	14	0.6673702379768961	-0.2601102405918247	-0.48545836592365116
Si	-0.08631636064366591	-0.11556176020378109	0.0622443939298434	14	0.649605699988397	0.5144084976074547	-0.5375124500143053
Si	1.3514083713027119	1.3878182409559578	1.3799520118332036	14	-0.6813516515973295	-0.307447889083199	-0.7198462404505864
Si	2.695619632557426	2.8115077923098695	0.050494010178011396	14	0.7661184228972914	-0.3246647816385066	-0.19326767292074298
Si	4.0307569863593375	4.171190392171162	1.5738659836932978	14	-0.37454191085459115	-0.1715282061072949	-1.7200697162895968
Si	2.624986770226969	-0.0649045502514387	2.635154116167791	14	1.8997341851825005	0.980025900886055	-0.30320839352080686
Si	4.036322098664024	1.3030522781684364	4.162361284379856	14	-0.15291777446846708	-0.0953597252189721	-1.546979049479248
Si	-0.10217937870863911	2.640556028698147	2.736892855485736	14	0.32013115162748945	0.1955395015816258	0.24269357315314158
Si	1.238164047894431	4.044857446861536	4.097065054670023	14	0.2827099992453943	0.010436373605013068	-0.23915367534836168
Si	0.1074017714872311	0.12341166934910221	5.515581173177642	14	-0.5792029227805064	-1.0962917976842153	-0.9268628990708214
Si	1.460474780488119	1.4200338764088973	6.833664150561963	14	0.3897502559337991	-0.47305072586968067	0.3032906688910516
Si	2.686921084585584	2.7021965834629658	5.394650140398371	14	0.6858366877177957	0.6630561803602197	0.4550442468705556
Si	4.145045788323336	4.060475665265012	6.780542624017222	14	-0.9949105438054564	0.33304504231899723	-0.5172441696650458
Si	2.763086419265862	-0.019991972355547498	8.170188702445687	14	-0.012122504473966178	0.40089908282302517	-0.23572382085128415
Si	4.025175554077217	1.4496056755176745	9.462681955214908	14	1.0367069461108476	-0.07134123064974479	0.21737178529713122
Si	0.21385698428334238	2.6883082826673976	8.244460919743725	14	-1.6997890946348007	-0.018651826434482224	-0.07961556179104534
Si	1.1861849197700072	4.187608289468861	9.617134221641766	14	2.454570742843963	-0.8915870769678576	-0.4568689603162647
Si	-0.1179607968864468	0.0518322483275256	10.980048177034814	14	1.7136283261310299	0.04355015324426421	0.343944471992169
Si	1.5592596038906734	1.529818364601361	12.245450267265088	14	-1.8888810354050913	-1.1998410075689232	-0.045435801886060806
Si	2.8134498696244084	2.808814996033408	10.88389086999899	14	-0.6067029510637462	0.9104157954483659	-0.6965443129340845
Si	4.139856035499611	4.230627749982514	12.15464591282732	14	0.217506768326439	-1.246860096111131	0.7041074763438321
Si	2.6619515191129413	0.056581361760557704	13.615414452909235	14	0.9104145098957058	-0.19701145937741057	0.36499899634832955
Si	4.141765472859284	1.473677642231497	14.89472116391251	14	-0.19184919411561727	-0.6266133335524409	1.0971700872615777
Si	0.0054508724626554	2.6863498853754257	13.579445222646683	14	0.10000545542194766	-0.14281513033400922	-0.09009770107075704
Si	1.444807602152343	4.0483825619870855	14.825377579799268	14	-0.7326778557718494	0.5319956293288635	1.1599891322171598
Si	-0.0609224757577623	5.324196797819678	0.0959125073743287	14	0.9702621284327927	0.4573322734949553	-1.5457230645303557
Si	1.3334563961263017	6.702516811909572	1.389482878654134	14	-1.2986457568063616	-0.7439326122002657	0.4146334132221922
Si	2.5832239479756667	7.931411112622001	0.1048068950753682	14	2.19774920306714	2.0671097990872243	-1.250642449147601
Si	4.007419418630004	9.65094921488315	1.4498831151340372	14	-0.20991969363721402	-0.4952735604833165	-1.4143154142807794
Si	2.6235995721451557	5.488261530954632	2.817431944118085	14	0.5334932981778497	0.12344108041509741	0.8429389360948039
Si	4.142271392159709	6.981098826692588	3.9562889293321017	14	0.17812231992187869	-0.6425161341786207	0.39743863217263786
Si	0.0764590942740735	8.255705384195132	2.54754847730691	14	-0.5579316542458572	-0.5753061555572899	1.66428778659526
Si	1.3285604028963716	9.785017829496066	3.894778934386748	14	-0.7520652754384262	-1.3756884135035348	0.9336105078730179
Si	-0.0571036010384169	5.389623587348976	5.480411621809311	14	0.5542984253179559	1.1864748594516012	-0.6107994931703382
Si	1.416280281599284	6.785667096931216	6.755148739131319	14	0.1615163219906383	0.14862685679967194	-0.12663027945420907
Si	2.6569902459732786	8.333355836821822	5.210315995291506	14	0.16643947445765783	-0.3847707962602683	0.826501088451501
Si	4.155376334038489	9.551332072631508	6.635539624524129	14	-0.8817446286917987	-0.2822834528727817	0.7058311453504594
Si	2.7609648221995586	5.294249639229939	8.207953130225881	14	-1.1101217732012918	0.7194706019633128	-0.5641372740465667
Si	4.011042453620153	6.694797462583715	9.536431933235088	14	1.483969485619443	-0.41287143474629473	-0.6915579112761892
Si	0.032036115701175295	8.151339128510457	8.170009182693924	14	0.752358381444923	-0.27084897618248716	-0.021948497675976092
Si	1.5423194673151155	9.481237769556342	9.416724898763299	14	0.025988989686588797	0.178405141507095	-0.06418378765951657
Si	0.0674994266633016	5.51341061617904	10.981255855364864	14	-0.2825860719689631	0.9476268885258051	1.449517188550523
Si	1.5444573843588516	6.944068797896885	12.391775184930264	14	-1.4231343055288872	-0.16202771483881576	-0.5582363302262948
Si	2.9190727635714313	8.126483802879845	10.88010463523451	14	-1.5885718202432835	0.5803123547261502	0.029203128447305913
Si	4.061438543933566	9.538700410098288	12.248763222684008	14	0.32835226088866293	0.9778384044796733	-0.2147029779748175
Si	2.8867918482087593	5.491656086260717	13.62076740550729	14	-1.440108485741973	-0.793874276159886	-0.6590054039283265
Si	4.0792273193356445	6.693687704118264	15.01305732027992	14	1.5602829768478221	0.9292830805086767	1.5026812188078846
Si	-0.15536618516311201	8.248312434417937	13.685622995826431	14	0.9541978623925076	-0.17366093797035775	-1.9403010849237967
Si	1.3337501557200977	9.361710254836318	14.989703432573153	14	0.641895726464869	0.32374843970240585	0.16602115562206973
Si	0.0839662838932995	10.7781374162325	-0.0353980310523939	14	-0.0732392205970781	1.2378614846011446	0.053600603940723045
Si	1.414109724600682	12.264642560726415	1.373146581243601	14	-0.8640973331058984	-0.33385956848442017	-1.5783833011911328
Si	2.754975390481611	13.5408974359497	0.0267158030579847	14	-0.39521282629698573	1.3677843215283354	-0.6333336886382439
Si	4.133262764616639	14.900465795968962	1.3444071009839118	14	0.17395121576100248	0.6155658082128286	0.007256687655585938
Si	2.7096221731950263	11.116336308578632	2.7485942793052693	14	1.709585263015097	-0.6038215133314562	0.3296234153589442
Si	4.2491346043916485	12.247392344579627	4.13711427929085	14	-0.36657405546745225	0.1656676286405494	-0.1325739036227954
Si	0.013349741540275802	13.387342768281663	2.72522407162107	14	-0.8231203420660385	1.6104488411913596	1.0565759338038878
Si	1.4555461473033229	14.969482980533542	3.990120242550918	14	-2.4423513076994277	-0.24821707871241572	0.4047014904809922
Si	-0.0130070220141807	10.975935542721672	5.434487205312568	14	1.0062059236979308	0.18769685902357813	0.12173695180890326
Si	1.5285290863841459	12.369498415734082	6.723895982346932	14	-1.0310476861906697	0.5624557711671899	0.14327227285993158
Si	2.8705861106176913	13.773881433784636	5.242662190563911	14	-0.07642302031501746	-1.3011659542411707	1.4151898472001618
Si	4.1037236054627275	15.040784961938757	6.724352941715059	14	0.4004200859018816	-0.6095391373424016	0.8187000977996397
Si	2.8852740903074814	11.041052252679743	8.098952000950206	14	-0.47337005715044306	-1.264323814777173	-0.3396813222608314
Si	4.09321353999581	12.247131224940699	9.635543156186303	14	0.9577027931649336	0.1040238359268071	-0.6443511320456105
Si	-0.0238434870297591	13.702971131837815	8.282290627433651	14	0.6389533535364916	-0.21639013728589868	-0.9053211502564925
Si	1.3670102697287554	15.091262652139333	9.61814606024262	14	-0.1316660463342511	-0.8984197893561511	0.30296156741007263
Si	0.0460386563387751	10.78646060472338	10.70900599182589	14	0.44520282703662484	0.10577347309716786	0.12413065086196112
Si	1.302350519138813	12.109211095653569	12.170035651546733	14	-0.3459867009479626	0.5664479263977837	-0.1852375967848565
Si	2.7128372087493466	13.5223579415857	10.961231243054451	14	0.0007088537367648253	1.3609274407500325	0.2022174334296464
Si	4.12990084926542	14.985101198937018	12.37418224925738	14	-0.28249968283020616	-0.23127889397381216	-0.8310779130318967
Si	2.555643186113728	10.856032668520687	13.58122410018689	14	1.388716718381789	-0.5026631742839541	0.7074221453225669
Si	4.041772971126679	12.290705564687075	14.944774534699828	14	-0.030114842393830422	-1.344838749209206	-0.3963132593740091
Si	0.023288607797033702	13.481868077574179	13.567466359210787	14	-0.33314557253701504	-0.2001512931943754	0.37975405555959535
Si	1.3164672996184446	14.921061607489534	14.875218790879956	14	0.27314214501752726	-0.11908588511329858	1.1907135836823974
Si	5.600983615085054	-0.0216076501214244	-0.0103142257377192	14	-1.8537525376369721	0.06348573256509638	-0.16227376961795392
Si	6.823366244801677	1.327793363957016	1.3721510626201818	14	0.3541419899129403	0.8878121801368162	0.08342285454912061
Si	8.184762442293446	2.722188555818513	-0.1665616896822186	14	-0.07682874073453684	-0.25170298330547247	1.4608830167287696
Si	9.329429339473647	4.052478876322794	1.457063905204601	14	1.0876125174549915	-0.29875421066418234	-1.0485314594782085
Si	8.241229564211972	-0.003590395035282	2.7992678092350447	14	-0.4870971884547137	0.6440354003122963	0.14089862842837084
Si	9.466549789866553	1.4080876529278679	4.148978902884713	14	0.17090702706194713	0.5579041434189317	0.3440177484937932
Si	5.328750071523513	2.744693804698758	2.7165418436266604	14	0.5608205481835756	-1.5910159129606163	0.5011742471930564
Si	6.6651277436103396	4.028619069315601	4.084384432204504	14	0.40059774927950387	1.0565052284075838	-0.06016026494401685
Si	5.470521715484852	0.0158793380424063	5.412536835665048	14	0.5555906628518624	0.4465349167029935	0.37389630630870196
Si	6.836928146048583	1.421600594242475	6.748278028631983	14	-0.4665733402366316	-0.01858317792243427	0.7696284958803576
Si	8.127201881886903	2.884082731954865	5.506882625205799	14	0.5377641612251478	-0.6359850124443805	-0.597549044792423
Si	9.597387048947716	4.205054345344845	6.747984269038188	14	0.4772611679419552	-0.24956613767389735	-0.08560598007645835
Si	8.134203152205702	0.0387599464036125	8.192759231235666	14	-0.07942247178150222	0.23402149201881414	-0.37688341646965007
Si	9.67242630518511	1.2535864265687104	9.451682290425	14	-1.5629137318113977	1.0646232363454196	0.3468721896202216
Si	5.450872462655401	2.8482114215569116	8.156186161808089	14	0.22883223015115928	-1.7798965088735903	-0.2862915489563605
Si	6.942795839657102	4.04830096209992	9.439997186582898	14	-0.5043660173374882	-0.207279682694486	0.8802392465268521
Si	5.436967841882399	0.1283403025338984	10.924086974416714	14	-1.2456647892477941	-1.174625406362635	-0.5971091286721457
Si	6.813264178770588	1.2684702459876975	12.254295695033829	14	0.8786587880865571	1.3573836862872724	0.6473248724588937
Si	8.195876346925386	2.655292968320236	10.848607078788627	14	0.447481083460808	-0.4770318253473979	-0.14111614393845537
Si	9.53297209801927	4.194870679426591	12.06810107249959	14	-1.082121150712219	-1.0731166256599967	0.5722218576152404
Si	8.170058142626223	0.0545576845588533	13.787786054557637	14	0.4654695647226921	0.009762229790070243	-1.2764355206087945
Si	9.66289543836418	1.5642861569400681	14.818425269412769	14	-0.7515371704056676	-0.6759896114521605	0.2674355767594586
Si	5.508008703648683	2.8020258854212385	13.534940644186618	14	-0.7046360955976544	-0.49343804839526284	-0.691726832895723
Si	6.864623147752553	4.072209729039411	14.832917409373362	14	-0.023453879840922794	0.8330841465132083	0.615105066139458
Si	5.567935660783027	5.288292847466858	0.1432241219528856	14	-1.10463940532714	0.4107240475829071	-1.397150715163471
Si	6.827837918618346	6.901228857134997	1.140276823250697	14	0.3410242105695448	-0.2816597027221138	0.6989657799245999
Si	8.19352627017502	8.175329495337115	-0.2357094340662633	14	0.35160610873567827	-0.7919415762907306	0.6314729797180528
Si	9.64889289772658	9.233451552189585	1.2159199186531156	14	-0.04556281448887612	1.1712256337978029	1.1829714713423674
Si	8.006026049446135	5.47213739325073	2.64967889608325	14	-0.029730205037936264	0.534557478669859	0.7982896353261763
Si	9.604600478973145	6.789665491402325	3.9311072041528288	14	-0.15357340632510483	-0.9935745974811074	-0.5472625956093707
Si	5.5663199830171495	8.314016663563597	2.493202952454687	14	-0.38164947440160857	-0.4914184451662866	1.3042708210257816
Si	6.944803196881374	9.495599349697471	4.054012954201505	14	-0.3363070036386691	0.17384065823223613	-0.3692462052266822
Si	5.456372295050355	5.486466333436991	5.49777607779813	14	-0.18789766234908167	0.6669357211777912	-1.0385823103313636
Si	7.010540065981901	6.797123721089252	6.70161921315075	14	-0.8566071890872431	-0.037819930817250186	0.2784131680343628
Si	8.388125681087304	8.125537244188726	5.2688231143891695	14	-0.6659407034188939	0.4995688490311559	1.3684270978583726
Si	9.681826612186576	9.439833986808567	6.805055230121739	14	-0.8169877416564212	0.28421692407353305	0.23294368466860807
Si	8.230066699647733	5.4047522064294595	8.165994468245382	14	0.5985697736045217	1.4606888982770985	-0.24405677319388408
Si	9.503237099136163	6.9702786816544435	9.529936582216713	14	0.7676433454626712	-1.5791088671124784	-0.6061694467098154
Si	5.306130582801236	7.981562403273918	7.984238879572946	14	1.080794717477555	0.5344093830034184	0.17157757132944176
Si	6.783708699639244	9.485578883553547	9.28032252737745	14	-0.6252354782113735	-0.9192406002387102	-0.3569018143635872
Si	5.530954591919622	5.353376917470061	10.80439625992236	14	0.32284675306662985	1.0765382526200495	-0.7524612256577289
Si	6.756127937777305	6.8756554524973295	12.08652632702156	14	-0.0536571682577663	0.19294679897678851	0.4213830789086449
Si	8.116985576013782	8.261727455867945	10.718194139120724	14	-0.30850409914871585	0.3453539519286742	1.461570787401909
Si	9.517125399931729	9.51585244169195	12.283541094593945	14	-0.6724887944482469	-0.47354283542795705	-0.8041237304081242
Si	8.145300736860209	5.508351423174778	13.424764476535762	14	0.11899126843751713	0.18842936692928833	0.5414282434168908
Si	9.584118907294606	6.762378489134182	14.869523118755804	14	-0.7294074098046212	-0.03640582289116874	-0.6228163252156462
Si	5.339113257193532	8.193673149971918	13.565524281896248	14	0.5947799643626234	-1.1027529853537474	0.4231499424846507
Si	6.798053959802939	9.478447053415282	14.87513719099279	14	-0.506913982709755	1.2283249978581836	-0.3078168426966403
Si	5.455523656223834	10.923254655567625	-0.0447983380538595	14	-0.6036757316598038	-0.7781985041334752	-0.19694255375483063
Si	6.781962462053902	12.130508666203765	1.4162150016895516	14	0.4798294450462511	0.5142393188773889	0.35952074224269004
Si	8.132718034259291	13.553202698934257	0.104121456023178	14	-0.9163910442123901	0.3830211590899075	-0.23436473457905388
Si	9.530785221043235	15.147419694486631	1.2875156596521253	14	0.2557730430272669	0.8582442118445812	-0.6301504031413686
Si	8.325277447992438	10.798227308452647	2.660466401166529	14	-0.09722300524448342	-0.45891710281429465	-0.36959998931873456
Si	9.507561893155932	12.230794927530164	4.161724805259965	14	-0.3456079771343048	-0.5724103196352072	0.3780905504174596
Si	5.520379246542973	13.61360293541416	2.786636146701825	14	0.28578298432403526	0.13273279793158055	-0.44219489092258357
Si	6.941800321033684	14.943158856933952	4.170047993750846	14	-1.485080974449343	0.6113743923199232	-1.3053820527451496
Si	5.607789045674656	10.881622393135787	5.471419314243673	14	0.02814794682391714	-0.4548534708558006	-0.6767383173213877
Si	6.903448374065898	12.1490155206129	6.877858649450798	14	-1.3609958321515485	1.7514312876531672	-0.5682525852219957
Si	8.074472034800555	13.550232463041434	5.439268958700466	14	1.317215822091663	-0.39917438537426986	1.1310611120391099
Si	9.40993578815113	14.9560516391061	6.8507022070021195	14	0.4987687210555258	0.1540601165622089	-0.8303484904525708
Si	8.178381331117103	10.881916152729582	8.116969256036349	14	2.0613849759813827	-0.8432520967227979	0.809849839066626
Si	9.551919591819098	12.248110423586684	9.645237222781564	14	-0.2594196417028329	0.04266877834051745	-1.8017537323107014
Si	5.4370657617469975	13.616997490720246	8.14735705401678	14	-0.11514618043123569	-0.177120360178617	0.1078802367964972
Si	6.731762211469687	15.03990368315737	9.54113208673582	14	0.07927489033612573	-0.22059955091604508	-0.172883949942609
Si	5.544059533798401	10.706182635729963	10.732686279081317	14	-0.8547235973297025	1.1134688381070605	1.0129884995324816
Si	6.908638126889624	12.212989832150653	11.983302469757204	14	-1.1978381165245275	-1.0822515057519508	1.6672111333442683
Si	8.156822640927977	13.625842918488987	10.799989866015423	14	0.15217626769413636	1.277657566967461	0.17877769466798443
Si	9.418846495829602	14.915888174643243	12.35769907204995	14	0.06277507905460744	0.48211798589171484	-0.4780147589112906
Si	8.20299185708622	10.901043166281177	13.554035017783345	14	-0.8390830494461777	0.6084834414979488	0.09576878807540766
Si	9.412318504856362	12.371342573184021	14.987483915642251	14	0.6910894558868582	-1.3964670582588434	-0.48892473011627485
Si	5.484181536596357	13.44087229426223	13.570730354697407	14	0.6156653099887183	0.9735387450527896	-0.6324710828033343
Si	6.834039510042924	14.938801422959314	14.944513415060898	14	-0.2982034799046066	-1.2002418428883341	0.11025619522284605
Si	10.903458522941275	0.1060145734054176	-0.1855907833692132	14	0.6079833615131799	-0.27642338962710017	0.7371186688808092
Si	12.211994313527233	1.4741019616447575	1.3344192747948547	14	-0.42998702575198844	-0.8236016529819702	-0.28149952286066854
Si	13.53472848447999	2.6992263475701415	-0.0661448685363543	14	1.3423488908171746	0.04984653306277483	-0.1377811632276913
Si	14.918319851280772	4.0806961173046234	1.4464069599407867	14	-0.14398781147052878	-1.297298240508072	-0.9403275205219047
Si	13.558180292051352	0.10136337983698411	2.8245637742563496	14	-0.3070192858263303	2.8743422529379394	-2.50100516203637
Si	14.866536562885548	1.3962883092437366	4.219938164763833	14	1.0133875350781687	0.6062388665534595	0.05462878895825027
Si	10.853503072018556	2.684456767993186	2.768096652337823	14	-0.5411469644948665	0.3372140895956174	-0.30536323688962297
Si	12.343810771254383	3.917561622883356	4.058419348108442	14	-0.027104078063937023	0.7811750727626106	0.37013606477798544
Si	10.865726735115947	0.1807437500715825	5.541480977363972	14	-1.6886140424713092	-1.4626951317584098	-0.39524882177146775
Si	12.15985198562848	1.3514736512124441	6.858731635899204	14	1.8916948530674613	1.0835272882118083	0.9875970347222953
Si	13.666952941642965	2.775718081799081	5.649241788354731	14	-0.5937376382658355	-0.37749328265158916	-0.21472946035961504
Si	15.107762149324198	4.090031144396356	6.918805472830446	14	-0.42038034783378714	-0.5593035960446883	0.6953289514492506
Si	13.646912009355118	0.0192412533936249	8.173713817571237	14	-0.643528121232631	-0.058014677554353265	0.11675492103005232
Si	15.034975049972573	1.3285930428512378	9.510075169680631	14	-0.7707096456674799	1.0649209703414926	-0.13724097399992818
Si	10.855689948994593	2.7430128470231487	8.161914473887105	14	0.17398438301963237	0.3818168533579502	-0.4718903860386979
Si	12.259811847406215	4.124955896103191	9.493624632428066	14	-0.17460196251753193	0.246208531236316	-0.273416224844655
Si	10.767611030788151	0.0054508724626554	10.96302644057209	14	0.6394439204315758	-0.7466050190700276	0.5528447223699442
Si	12.231545646492087	1.310983787200923	12.228526450666964	14	-0.432913714937913	0.7862848874758729	-0.4469095267481391
Si	13.50925299970692	2.7374640546958946	10.845261483414841	14	0.9856242256101454	-0.6538662786144144	-0.06503816595740178
Si	14.991710789797423	4.020197960960122	12.180072437668091	14	-0.4885393214287847	0.4597794515386723	0.5277792737143527
Si	13.497812695526315	-0.12796494305293712	13.473267449466935	14	1.2836076188993475	0.3082279624373319	0.3046201874521002
Si	14.962285870485545	1.1870172386190954	14.831007972013689	14	-0.4769346375662963	0.5669279517610554	0.8700496990325732
Si	10.891039020114688	2.8784360197630128	13.416049608586485	14	0.5022011466579236	-0.43160065145091336	-0.19774371017258874
Si	12.185458030221012	4.044971686703567	14.928372957379564	14	-0.15968389522896875	0.5248806095764178	0.3872120607617489
Si	10.729781323098226	5.374119608787531	-0.0204978916559736	14	0.4621638946125776	-0.4585193528212677	0.3879198860563856
Si	12.25230465778699	6.684450596891129	1.1999100207912445	14	0.8729504200547643	0.4267739154333994	0.5959125362561487
Si	13.787394375099243	8.147503933813677	-0.0988664232897198	14	-1.2876085158880297	-0.8595660170896694	0.8781813338286055
Si	15.006659889126144	9.535256894859904	1.2712283221738916	14	-0.3246658100806346	0.06043588743433672	0.11783349971185446
Si	13.620620525710393	5.3884648689512264	2.7362726963432786	14	-0.7547451385136165	0.8540152578140019	0.056368913038926494
Si	14.925141601847809	6.853264443459116	4.083372593603652	14	0.8498752640274994	0.08252502457132492	-0.3406262034659859
Si	11.136018201362951	8.057711417976762	2.7785740778498735	14	-0.5251441478717329	0.4086244829784741	-1.2148030407584607
Si	12.357029952975193	9.57003476676984	4.125021176012923	14	-0.38559920639442	0.076623052308925	0.12072547897595702
Si	10.992532959771136	5.464646523608936	5.234436921937628	14	-0.09303210357264205	-0.47029090141903374	0.9858934203371652
Si	12.295993237375399	6.770489517918432	6.735923805715127	14	0.5822375983898771	0.11392182007778116	0.7586223653363997
Si	13.708862643691166	8.24416716014993	5.528849314830752	14	-0.20982276296664443	-0.1868712771052786	-0.238759524902783
Si	15.12204212957816	9.604486239131115	6.831020314217801	14	-0.6144378643088796	-0.535147804451365	0.15516286363402038
Si	13.784668938867915	5.479709862779687	8.258071780922931	14	-1.1611618133536796	-0.26733118988346055	-0.8004154252048747
Si	15.043526718147517	6.8192046505562365	9.624592451328693	14	-0.08648761209073713	0.7433104047127898	-0.2470469686812163
Si	11.045931925932239	8.162028713729137	8.25033611161964	14	-0.3576834303809122	-0.19756501835283846	-0.9012917139987565
Si	12.278106542108722	9.660839121207609	9.522298832778022	14	0.20892287610459265	-0.4837295547063837	-0.13073042110824923
Si	10.848639718743492	5.466474361081443	10.821450636339948	14	0.7928620319953437	1.0035062631117755	-0.8362898006263689
Si	12.25457313465019	6.685397155582249	12.25573185304794	14	0.1654963930262275	0.6986767876866152	-0.5827127386530405
Si	13.563304764965347	8.188858756629154	10.825449030811058	14	-0.15813146183666335	-0.5940559411044698	0.455119323145904
Si	14.93667982589301	9.59103857772624	12.058766045407857	14	0.2545260569469951	-0.8381908759000865	0.8020136242718788
Si	13.619380207425477	5.397897815907557	13.673529892548505	14	0.053445566289918124	-0.4045955609418021	-0.8674325709271945
Si	15.009352685402604	6.750481225585452	14.905606588860389	14	0.26158194127707746	-0.9116656097444901	0.851777881964409
Si	10.863719377891677	8.120739170823395	13.482488236716636	14	0.8267839100367174	-0.666375991549595	0.5443245935600376
Si	12.379616801742603	9.296218185397288	14.84807866840871	14	-1.3234358400821653	1.1713888989856325	-0.1783205521420621
Si	10.719532377270237	10.71037686993027	-0.2404585474992954	14	1.5127774351790422	0.18298376586121468	0.3860206105563923
Si	12.18922794500806	12.076440580967907	1.2973566060442845	14	-1.2331285939278163	-0.029840248345638604	-1.1291636363128406
Si	13.52110130332335	13.552990539227627	0.0008323188490881	14	0.3396288717123004	-0.1863161754666586	-0.8826663699490719
Si	14.87629590939054	14.84053883883462	1.434509696392057	14	0.3933631731296712	-0.04133668867414873	-0.05699497718438254
Si	13.60513286712638	10.856979227211806	2.6058923966302427	14	0.02851921443214652	-0.43005078916392814	0.8710627145287116
Si	14.819779827539715	12.141981610339235	4.129182770258364	14	0.37545079658526354	1.0820730710427324	-0.331894215577699
Si	10.148463726931205	13.172359705555436	2.2234826854178436	14	0.7159769840542957	-0.8577657291445018	0.09046948290005045
Si	12.320766963118846	15.133792513329992	4.195719318253112	14	-1.0647335367636537	-0.6577203654893163	1.710935350418707
Si	10.923842174755217	10.931316724419577	5.547062409646091	14	0.5710108670094505	-0.058042445491810875	-0.9514989731379483
Si	12.193193699524302	12.383859995875211	6.864378348091057	14	0.6087456942406038	-0.35682930919355904	-0.10610720256772309
Si	13.621926123905043	13.694288903843407	5.516380852071863	14	-0.3650203365224868	-0.7059383604423095	-0.6831172296206751
Si	14.976027291484215	15.025688982813138	6.769983598618007	14	0.9155418081251454	0.1084065420555315	0.75508375308428
Si	13.642701455177377	10.917852743037269	8.079890267308345	14	0.06452214511964806	0.7741945218184085	0.5797734510510472
Si	14.96915658098488	12.269734393685543	9.603686560236893	14	-0.20390227874593944	-0.40167992750875414	-1.0646849428731031
Si	10.824714631826568	13.695953541541584	8.18420756306072	14	0.17935439359129365	-0.13296394029986186	1.01348086620129
Si	12.223630457437034	15.056713259913462	9.628803005506432	14	0.3689983506738199	-1.0303205776061317	-0.2320522824541127
Si	10.779540934291747	10.808590494122665	10.89626141289328	14	1.0458197146970483	0.4718042540104728	0.39480324921948606
Si	12.133413622186856	12.14421744724757	12.351497480625373	14	-0.6849635403510734	0.3825203077735427	-0.8887192660937646
Si	13.520334264383994	13.423116158815018	10.984780970490414	14	-0.03538432274747391	1.397000819723306	-0.3269345534151333
Si	15.006415089464648	14.836932123821905	12.261900804517653	14	-0.8567858809069934	0.023982499094745237	-0.32656328580690397
Si	13.51452435241781	10.769634707989855	13.446355806679751	14	1.032561295892641	-0.0415984271957398	1.2079212202585525
Si	14.923215844510702	12.08499224914285	14.912591539201756	14	0.03649246914045772	0.3249476032237229	-0.015812040608378673
Si	10.85415587111588	13.598555916220842	13.654060159470816	14	-0.4970244832063374	-0.3174374045835704	-0.5546205848145705
Si	12.236474279676884	14.91208561990133	14.861281530152088	14	-0.015217086837296405	0.20265323578141153	1.171118675816485
H	-2.7611622939264993	-2.1245738301867974	2.491060139417721	1	-0.521448441084552	-0.89135002105734	0.2720995618102072
H	14.342059816120269	-0.6979776908520507	3.6922708624103837	1	1.3908512500185761	-1.817127142351463	1.5768311249093592
H	8.01292123991162	15.506163806423292	0.8339900147772494	1	-0.18340542713371896	-0.4190197188983648	-0.05282078769712213
H	4.175471122251865	1.4200338764088973	6.833664150561963	1	0.16983384770131732	-0.005990675395945024	-0.03187270710121566
H	9.551924487812329	1.421600594242475	6.748278028631983	1	0.0698880419227971	-0.12534909767317928	-0.14926217692428054
