225
config_type=interstitial dft_energy=-23350.540523794712 dft_virial="-73.27374139911103 3.103349180986996 7.918075165720317 3.1033491809869966 -70.50951296725349 10.382615493696015 7.918075165720317 10.382615493696015 -74.22012488505369" pbc="T T T" Lattice="16.254729908999998 0.0 0.0 0.0 16.254729908999998 0.0 0.0 0.0 16.254729908999998" Properties=species:S:1:pos:R:3:Z:I:1:dft_force:R:3
Si	1.200200492290833	-3.9122859228775737	-1.2698195004910797	14	0.14995046181848418	0.5592403468538127	-1.547939871537387
Si	0.09886126730653798	0.028071918552843	-0.15198172464915	14	-0.1952911328076995	1.0755943998570232	1.378213496038452
Si	1.4532541275141448	1.5017907510224189	1.2423815164046879	14	-1.5359400087871924	-0.2660651776238196	0.40544942501862324
Si	2.8281116926771825	2.80979261206974	-0.005510353439150999	14	-0.4718266226267581	0.2846486126567859	-1.1367016028904506
Si	3.99037364536041	4.173158083187114	1.4245807839546687	14	-0.9767989065987372	-0.1487232732491775	0.6732148745906569
Si	2.6827618978309045	0.13662100488514498	2.597749660406835	14	0.13029281898276002	-1.0665880750310766	0.11678217474644591
Si	3.9388136420890616	1.484024331231882	4.026101541700392	14	0.21458779245647486	-0.40863193918390256	0.03473049066456025
Si	-0.017685146140991998	2.727624952379745	2.7946269490646425	14	-0.6573503834337471	-0.37399066587395147	-1.547710014721766
Si	1.2475180110559319	4.010562019907388	4.161080818864727	14	0.9205683190260346	1.1103428882588247	-0.05856515120339697
Si	0.0011703405534479999	-0.015019370435915998	5.425308692267111	14	0.9818321023734591	1.4875872879154235	0.15256476170801075
Si	1.4503120214006158	1.5113972963986377	6.879115480598162	14	-0.7704643622199377	-1.0485543423155579	-0.5895426228254819
Si	2.7696759386543275	2.851502249016234	5.493887397753182	14	-0.32726956843834865	-0.310989843772235	-0.25901700660969773
Si	4.171792685874759	4.259048076026271	6.680141331782093	14	-0.5174434303273574	-0.23885774112601263	1.2218139307454405
Si	2.6809576228110057	-0.019001779263620996	8.176470493555088	14	0.6174519710756893	0.45624700993932094	-0.3001868305485689
Si	4.09081162146812	1.4722559067777659	9.444989615653448	14	-0.5003044422632503	-0.32914364710620453	0.0834205405543325
Si	0.004470050724975	2.8745352012972867	8.086679365537773	14	-0.01070274011618041	-0.7246043279560526	1.0834460412836915
Si	1.3884627740968707	4.253066335419759	9.47649128221709	14	-0.5648103894193814	-0.9299708511818163	0.02128746649816602
Si	-0.11469337423790399	-0.195511891345452	10.820416096363301	14	0.3797324582749061	0.8567226317161177	-0.19077961430243567
Si	1.2941528311648527	1.1610753573998698	12.2020681386283	14	0.30303741501701703	0.9071265804123007	-0.8608867938926296
Si	2.6277558918188486	2.7655309825275327	10.833062276232504	14	-0.24378937824058872	-0.8899479973262633	-0.11403083494335543
Si	4.05734313258549	4.075223335485389	12.147533519783606	14	-0.6233079205528586	-0.4400855561179341	-0.9497290242355583
Si	2.8219348953117627	-0.021602536049061	13.511923038885248	14	0.2501220106441134	0.385321527019844	-0.02619930610177691
Si	4.135170779389782	1.396297553913009	14.905310996144545	14	-1.1069096913248309	0.4277784462819813	-0.5656084605107554
Si	0.055184808041054995	2.643295413611853	13.511305359148706	14	-0.1491467342954059	0.10747425926644583	0.007187524922473955
Si	1.4079684499876708	4.087674458595683	14.765877922985144	14	-0.012737512866545597	-0.8915132862451695	1.0354517324935513
Si	0.06604296762026698	5.34177563526476	-0.029762410463378994	14	-0.4960050399468987	-0.6455279269506423	0.5993753009013242
Si	1.2118388789056769	6.795371112106994	1.3765155476137558	14	0.7908439714295595	-0.28259327106385956	-0.4644706903058145
Si	2.76769286160543	8.04072724408503	0.11459584585844998	14	0.044897669542553816	-0.5581221731500803	-0.8133002624062647
Si	4.15534289920685	9.413634241658986	1.376840642211936	14	-0.8266841511502956	-0.004494806320682871	0.637256938246258
Si	2.5230429217450707	5.495382832904811	2.7500402249242555	14	1.1476920496919556	-0.5231322579587171	0.8398294413206168
Si	4.247068340083338	6.713707349044178	4.105522152035766	14	-2.3059289736334345	0.4278380959254087	-0.41059549231689957
Si	-0.046634820108921	8.039085516364219	2.7757552076402936	14	0.3661889038904941	1.1691805766261574	0.10203894261965277
Si	1.3932579194200259	9.390520015728388	4.135642166557143	14	-0.11025439544912194	-0.4480845218794468	-0.16265943541597613
Si	0.004827654782973	5.417441402991156	5.529924133961435	14	-0.022670206939341655	0.6519991419309229	0.1825518201674298
Si	1.3460541837642899	6.911413628927345	6.953123265873839	14	-0.24055518485837443	-1.5580893097886719	-0.09932308406998036
Si	2.7181646995727067	8.014622147851176	5.528753793407987	14	1.1730228364165864	0.8444965116977495	-0.6993218780114404
Si	4.184910252911322	9.479222076841802	6.792494024913101	14	-1.319955334810281	-0.521880386778337	0.49760143924017863
Si	2.8180662695934204	5.498276174828612	8.182874857139232	14	-0.02186545097413531	0.6017412320169244	-0.39922683592280084
Si	4.130229341497445	6.886722694195575	9.566168627125043	14	0.44436773202864066	-0.640541011071683	-0.20324716111036573
Si	-0.08210264077035899	8.086403035129319	8.335376733145472	14	0.07451166062001939	0.5211291098037897	0.0685076154764096
Si	1.293681443997492	9.581626875268501	9.58572306720557	14	0.025274479518119647	0.07165310572507876	-0.6025629572772437
Si	-0.063767305433007	5.4210662077608625	10.905119493919099	14	0.9095925275248546	0.5288943620917009	-0.9386773851274338
Si	1.4533516558935988	6.620551491935699	12.171899359917196	14	-1.014676430175159	1.9534049802984634	-0.37297945015153716
Si	2.672537672718144	8.181395676717514	10.811931127350801	14	-0.24226779811212507	-0.5158861118349437	0.5418702164214243
Si	4.0587247846277545	9.385318502157508	12.22612513889362	14	0.4709051384800171	0.09509670114472095	-1.190427419660265
Si	2.7587852696152977	5.341710616345124	13.442889200961725	14	0.24121673025724855	0.4788357128400138	1.0869887673043235
Si	4.116022707556979	6.60559714041942	14.867486239646302	14	-0.35172463669093706	1.230625108677588	0.3820541663789998
Si	-0.013182585956198999	8.014784695150265	13.56829444220966	14	0.8206718784696614	0.09666996049011956	-0.5384293061714701
Si	1.485812351521872	9.301492860016795	14.8810264296605	14	-0.4781942220626369	0.44182516597754634	0.27981107799692734
Si	0.11729413102334399	10.815816007799054	0.015441993413549997	14	-0.4401223229240122	-0.6736481058371018	-0.0685562093669604
Si	1.4193792703837889	12.121590970848843	1.5856814120827678	14	-0.486686840045618	0.0849349215878997	0.08763792461097138
Si	2.830793723112168	13.380779877979435	0.07028545212651599	14	-0.5084566459018438	0.9802369886328391	0.9024335418714343
Si	4.102726338491418	14.982862312540384	1.191504211789518	14	-0.5722228860573683	0.8348792922477356	1.0633016882108632
Si	2.8026405309097795	10.711704462731909	2.8329881116498825	14	0.07928363209421423	0.1785897468690816	-0.20328444213750788
Si	3.9798405803793777	12.343955676003963	4.109537070323289	14	-0.3679837925144895	-1.313883412486219	0.6351959402216272
Si	-0.059866170254846994	13.508379507765085	2.8564436869085696	14	-0.4088018892455644	0.04885922861983798	-1.4041088974913876
Si	1.2807751884497458	14.982569727402023	3.961879103829933	14	0.2561296553351714	0.8190291992806187	-0.36138042272075316
Si	-0.07571453191612199	10.686802216511321	5.407867367074755	14	0.9457818633480671	1.1723618052387763	-0.40452691242975414
Si	1.2716887944306148	12.109139847738547	6.75530320288131	14	0.7052179367316039	-0.34586843010323576	-0.5748950358165982
Si	2.4537002439532767	13.638677422715629	5.350520679955802	14	0.3785132401320919	-1.2882566915392393	0.2780619550476306
Si	3.903654661295895	14.849817348235218	6.594966547058933	14	0.533011987261918	0.6470088836150475	1.556457943463038
Si	2.7426768322754786	10.853055594020573	8.156217100088474	14	-0.09336943259064548	-0.4652541060968636	-0.21988246964225583
Si	4.217094618131141	12.006816322961393	9.565973570366136	14	-0.10030241808642476	-0.31943643896998547	-0.09852809830499058
Si	0.009216431858402999	13.482225647341505	8.026943233122196	14	-0.7002778149694715	0.6056552256457858	0.922516959748175
Si	1.410179093255295	14.842177625177989	9.543249457953353	14	0.10723617491380012	-1.312456191923005	0.018527127826455044
Si	-0.15082763882561098	10.957898601933621	10.839645441845649	14	0.6219398354120077	-1.0645687289126322	0.5753809747221063
Si	1.1820602137123888	12.222191494255643	12.268875078554291	14	0.5531941355829524	-0.3058460904687467	0.1163913667377834
Si	2.8427409495952825	13.217257295094896	10.980102562989318	14	-0.43310809050011617	1.8525099224357446	-0.2624622877386961
Si	4.144273428138821	14.934845840389197	12.101272558462593	14	-0.25506264662730993	-1.3175032716664556	0.23400298006050904
Si	2.842269562427922	10.788849410880022	13.518473695038574	14	-0.8854817302746341	0.16618956302053942	0.06446635213420084
Si	4.167160087850693	12.205286575150282	14.82623173513726	14	-0.0996449864560629	-0.4760283229409441	0.12493257861131529
Si	-0.24786837638234097	13.77698891951131	13.414589716190155	14	0.5123937794785867	-0.6025832690092728	0.8912091244857958
Si	1.3504104513799018	15.024506930567243	14.782083888704417	14	0.6835406906669035	-1.702825827128428	-0.13521802833403568
Si	5.458029463573928	0.18874992370330798	-0.036573142295249994	14	1.1670126206202083	-1.3341563208250549	-0.0002313994788133271
Si	6.872467296065381	1.4869339278855929	1.3181610672404458	14	-1.0031445085932307	0.10267863362330563	0.3825221075472668
Si	8.030275452753543	2.8933744332618176	-0.11672521547652899	14	0.5741237042205538	-0.07038632213384179	0.7640468833408482
Si	9.326248813668204	4.18752726442667	1.470435377027958	14	0.8999161726524774	-0.440344209313141	-0.7095543629645658
Si	8.154705410206937	0.009801602135127	2.604804213187341	14	-0.2685964308115054	-0.2856811685533574	0.49514757632262935
Si	9.352386419361874	1.3401862262671407	4.115746377148526	14	0.27112048490429475	-0.1627890191241116	-0.2760068705652362
Si	5.284461457605626	2.8071268363646635	2.698366438543545	14	1.378851130157849	-0.4927525917169113	0.10904083373801204
Si	6.713105924037546	4.0663807624148935	4.111503892642277	14	0.2691289067233081	-0.035984161618664454	-0.6207923511076257
Si	5.252163309276444	0.010581829170758998	5.265784772940186	14	0.28394464402012937	-0.3526479206114022	0.09933876781243328
Si	6.541082117410599	1.3369027708255228	6.700362215788889	14	-0.11930211507072304	-0.07427151938311756	1.4134070427711711
Si	7.950188398491899	2.6246187289464116	5.483598153720785	14	1.219266993815302	1.1732745476274289	-0.4223649840304095
Si	9.472703930148294	4.098711420203895	6.7654949185342526	14	-0.7054663055055304	-0.7830517225357867	-0.6623632674764398
Si	7.976813646082841	0.082882867805991	8.169529723883945	14	-0.0698484469008668	-0.5251822002304711	-0.6211391932153136
Si	9.414544506533892	1.4347887543375208	9.385432285266873	14	-0.38581749323610065	-0.7274559408666288	1.3813201625967872
Si	5.412077342121186	2.9490143737403245	8.187621238272662	14	-0.4080099888069587	-1.4500242105196561	-1.253439811735922
Si	6.783196319405153	4.155863050563938	9.496874713522976	14	0.8024463412972597	0.8031541665918965	0.23107911909043666
Si	5.435679209949053	0.032753280766634994	10.767230620101053	14	0.414387101332522	-0.032055255578946174	-0.5778703188930736
Si	6.722712469413764	1.470939273655137	12.079816314982711	14	-0.017365245332280125	-0.06660422620790397	0.021137828168533403
Si	8.144481185094175	2.8010638221086066	10.815523422660691	14	-0.205161349021216	-0.017270628656498678	-0.3258109803902286
Si	9.438227648011303	4.090242705921306	12.247337561424866	14	-0.1409616205087145	-0.8998516379089417	0.35359614425347285
Si	8.126129595026915	0.20160741506132698	13.394775200431084	14	-0.012531053109337706	-1.201556449038526	0.23720297774196533
Si	9.35425571330141	1.3894380578914107	14.92296363282572	14	0.48401726139170825	0.5489083601247976	-0.03619962024449287
Si	5.2634278371033805	2.7200502482421505	13.41063981682227	14	1.769640883972584	0.11365622489820987	1.3850935167646365
Si	6.596169397072199	4.2260022101212735	14.951490683816013	14	0.7910707429187966	-1.4427855206013112	-2.04175690085684
Si	5.343466127175296	5.3339246007187135	0.11703405534479998	14	0.7984091917235633	2.485366671037101	0.29732699010096814
Si	6.863185845287343	6.947515384055234	1.3540677656094269	14	-0.6678235238448383	-0.9760692269088792	-0.7014823778119608
Si	8.276469591955255	8.289018243445003	0.032314403059092	14	-0.11334049316489568	0.042398040950305846	0.21370616044219606
Si	9.474150601110194	9.848041898477012	1.3341394667409927	14	0.12912630849900886	-1.444327669572336	0.044619990167977824
Si	8.028454923003734	5.589936596785463	2.8043310228203158	14	0.44452842611115	-0.5926189503410391	0.57541208509648
Si	9.408253926059109	6.991598211568442	4.151327980919327	14	0.9894770269323874	-0.9516496399097087	-0.8809396156160605
Si	5.4755358076859215	8.08555778917405	2.7403361511685826	14	0.46783498161722825	1.1623082692159334	0.6311752457219796
Si	6.834122388210051	9.592533799037442	4.164543076335344	14	-0.5946046149797893	-0.5457199324172819	-1.0064388658399364
Si	5.585742876468942	5.536637337413852	5.461703032533363	14	0.7141368439766657	-0.10842453979277256	0.29762575253916934
Si	7.062485088701591	6.812389814321717	6.79641141482117	14	-2.204472643479327	0.3796797506158431	0.10813888999170411
Si	8.180566685492156	8.277461130479704	5.528428698809808	14	0.23340854051049081	1.0152628992986845	-0.06062640633855968
Si	9.561454755451434	9.645670511109962	6.841046903151284	14	-0.4684597602100243	-0.19952959992796362	-0.26585511831916353
Si	8.245975718645973	5.4809323780157095	8.12539813218101	14	0.043626000851208574	-0.8444260634119773	1.0555207521804992
Si	9.663339402521045	6.718469984907515	9.480164851176523	14	-0.3219144702775442	-0.7762629760484678	0.9036319340611554
Si	5.540424689482649	8.128941663301172	8.142693164804186	14	0.12879257902845362	-0.5293329926593181	-0.3553959179775765
Si	7.1118994676249505	9.221795919272969	9.398777418522162	14	-1.0229363631266664	2.383583553396803	-0.02535444089357625
Si	5.458565869660926	5.4205135469439565	10.97239782101245	14	-0.07621990299472578	0.6934723562975715	-1.153998713931747
Si	6.788479106625577	6.802815778405317	12.24514317288715	14	0.16103269707991846	-0.38757072995390957	0.6508205472521671
Si	8.215985741963868	7.902090652691168	10.831924445138874	14	0.328543808235014	-0.09947375084174104	0.1556894260035867
Si	9.474183110570012	9.285416932136794	12.168550885555941	14	1.5349331639438222	-0.5798968641064143	-0.353512583330568
Si	8.198755728260327	5.42922608217518	13.629363462477771	14	-1.3650484083571661	0.507539789744679	0.28461853072454024
Si	9.458643588777008	6.767347957743878	15.043362417261681	14	0.5783205194346316	-0.7745264515152397	0.32524790832511624
Si	5.386394868864965	8.18004653413507	13.55073933390794	14	0.966461777659082	-1.1303759124712902	1.3082159250290168
Si	6.889307196251105	9.48964135871347	14.919420101705557	14	-1.5710895896189365	0.2841924985729916	-0.16070899492011181
Si	5.299562101691087	10.853900839975841	0.05242150395652499	14	1.1947864716200438	-0.7767085486004494	-1.1496108655923822
Si	6.5519565317197195	12.246313513440597	1.3139998563837418	14	0.7478805444193531	0.12463201639939	0.5562717486511696
Si	7.922929216434506	13.602461884478377	-0.004551324374519999	14	1.1119269462465677	-0.0976030146108013	-0.7253219234509058
Si	9.474313148409284	14.71244862577426	1.442038363876935	14	-0.18865690975012142	1.3536517269150776	-1.3946801400613407
Si	8.032128491963167	10.968968073001651	2.6666697152209946	14	-0.11096016385950258	0.8816957776907159	1.01691869112486
Si	9.426784318155368	12.316761512866204	4.189786671884021	14	-0.15105089489550758	-0.3273844968461592	-1.4301670499110886
Si	5.183519584870736	13.55854160426426	2.6387928534270597	14	1.1790001420648668	0.5962750621062896	0.003098181910778435
Si	6.679767472994186	14.913324577989682	3.8863433739428097	14	-0.15401615066123434	0.33778770319254237	0.4278198410776356
Si	5.39559504599346	10.85861471164945	5.47392658942493	14	-0.10907374388610995	0.8498981468648487	-0.9832228132411273
Si	6.685619175761426	12.237292138341104	6.7800916659925345	14	0.2194937185178494	0.06344228088518586	0.31687664651324604
Si	7.974993116333033	13.625039704321978	5.4134102299737235	14	0.15933319646330055	0.5337789479789182	0.1985790622911049
Si	9.374346559468934	14.921923330111543	6.859869880385906	14	0.1607920416219526	0.4743733024463648	-0.6044864011672465
Si	8.212702286522248	11.028297837169502	8.093782682508005	14	-1.2151722514824341	-1.3416734614495718	0.026880906122148166
Si	9.509195798793996	12.186934985083022	9.493851333759903	14	0.621391161536688	0.05490826810655037	0.40214684023489305
Si	5.269474596629529	13.50928977263999	8.127852596397268	14	0.35176988814457166	0.6392351466795798	-0.16640656430955994
Si	6.81396652312289	14.769258906806215	9.480278634285886	14	-0.6115751956454268	0.5006021762593235	0.009428243208983007
Si	5.631337393863687	10.580886396424278	10.883029315972768	14	-0.07872338824495397	0.03126669757725676	-0.752238825047536
Si	6.8664042818093245	12.121233366790843	12.154019157017297	14	-0.23997025839804076	-0.3378481241675659	0.4014834950622948
Si	8.240172780068459	13.478633352031615	10.88153388082114	14	-0.7247015157371541	0.6639465541325871	-0.2264092204974517
Si	9.502287538582674	14.928604024104143	12.182773774226318	14	0.2610288965227136	0.4726989986618844	-0.06638953891367161
Si	8.226600080594444	10.631942503068446	13.423724874399014	14	-0.36728265209368516	1.6333363065302537	1.2684064729150362
Si	9.449378392728878	12.220891115862921	14.807815126150365	14	-0.9306149130645134	-0.6210666880452854	0.8644086939601684
Si	5.492603274090371	13.533720631693216	13.499276859016044	14	0.37419224053105105	0.5231919076021445	-0.6199626554208139
Si	6.792152675585012	15.055017058606436	14.719389395445404	14	-0.20565988634279267	-0.06264729512019608	1.054549645701079
Si	10.744165158360182	0.09221308277375699	0.004778890593245999	14	-0.16212284573566121	-1.7492085671038993	0.20523462552284016
Si	12.097095092875978	1.3650397082980017	1.412292208143465	14	0.4402249100262861	-0.07887328368511859	-0.797744046777241
Si	13.52391902955809	2.5874604163744377	-0.050861049885260995	14	-0.6746498084698316	0.1603269286695378	0.14069011178690682
Si	14.706808234495837	4.01506458009218	1.2953556811781188	14	1.493293856173492	0.6049052342238986	0.8752518164268288
Si	13.596984040499043	0.133890210260433	2.6628661084222887	14	-0.09266546395398893	-1.8042500184660333	0.038024590800733976
Si	14.894550364944788	1.34280323778249	4.124718988058294	14	0.15294348552166856	0.363738126299329	-0.3180254163702882
Si	10.709721385683011	2.6561529049698716	2.708574408926397	14	-0.6437996299544387	1.0942570249338501	0.5349506006733096
Si	12.067527739171508	4.090746602548485	4.0249637106067615	14	0.09939610346107257	-0.24647258375269523	-0.746905581281953
Si	10.797578200841155	-0.016075927880001	5.351512218480252	14	-0.3757179344280269	-0.4621932052132273	0.5168788155990529
Si	12.131668903392422	1.4351626131254278	6.5918944031061315	14	0.2667076968433246	-0.3772868228943813	0.8038596778917451
Si	13.503681890821385	2.8239017176307515	5.272920599370236	14	-0.0939461315139547	-0.773751520371747	0.45060986152489624
Si	14.810334609286258	4.017714101067347	6.72635352891338	14	0.13826967323851944	0.9188125112029056	0.13793080155732393
Si	13.530420921521689	0.06531150477436198	8.024748844584481	14	-0.18632234611942697	-0.31641847554519564	0.3063723957277811
Si	14.906026204260542	1.3725493935159598	9.50300274669867	14	0.42378449127766327	-0.254056573115536	-0.8746401504711656
Si	10.708079657962202	2.6446933203840266	8.051682932043695	14	1.4439260629213289	0.8827620150669815	-0.6513206272369358
Si	12.103076833482492	4.1016372715875145	9.305930401281952	14	0.42384979735279493	-0.4474157773856763	1.3143413263437376
Si	10.823748315994646	0.13670227853469	10.824447269380734	14	-0.6087549502197563	-1.2659328124865217	-0.8751618277406237
Si	12.173524832908097	1.3408526701934098	12.188381656044921	14	-0.975978209780546	1.8122772663860673	-0.9416755510412584
Si	13.530859799229232	2.6517153637047146	10.815312111171874	14	-0.19922081017901383	1.2918122730864718	-0.2914065058802631
Si	15.002936903977998	4.0425350736383905	12.160618577360351	14	-1.5118042718153664	-1.3074479358698885	0.641964632087449
Si	13.374099183986838	0.12642928923220198	13.50813568681645	14	1.0350017890625254	-1.6061646083963967	1.607503382936598
Si	14.917046911138844	1.3230862504028729	14.842844069104258	14	-0.40080060948926355	0.1393801336262914	-0.2582734429511109
Si	10.778560166847626	2.6509351366690828	13.529738222865511	14	0.029096684687051778	0.42226599647558377	0.3534434205974561
Si	12.160699851009896	4.012577606416103	14.897004829161046	14	-0.24049604943601105	-0.3762378119237609	0.291768774619872
Si	10.929127729994693	5.4087288677599314	0.10832152011357599	14	-0.7591435283847938	0.08183493990339716	0.1797009785884496
Si	12.16435716523942	6.895532757806253	1.4884943819568568	14	-0.29553801501920907	0.0760918619497824	-0.21192952666597378
Si	13.522634905895279	8.119562684143679	0.021407479290153	14	1.2112929677753947	-0.2510018428846681	0.14188336176598756
Si	15.011145542582044	9.485041270149223	1.3821884483519968	14	-0.5228090700199745	-1.0772468492462823	-0.3815299180042217
Si	13.47999874934397	5.463182212955082	2.7933590801317405	14	0.14786143874586385	-0.25677268877574044	-0.756752143326524
Si	14.889982785840358	6.753596456240864	4.111487637912369	14	-0.23511189778508892	-0.4711231682111657	0.5812883463056785
Si	10.713541247211626	8.386058981001733	2.6935062743007534	14	0.020676057653034808	-0.8828157511681723	0.13027199302966683
Si	12.125638398596182	9.594386838247067	4.057928302862214	14	1.0888939563465532	-0.3610739469665915	0.12207839459541893
Si	10.805689311065747	5.4039337224367765	5.380380618798636	14	-0.8743447304698806	0.8046718900623799	-0.11964278652564263
Si	12.127231362127265	6.850913524206048	6.7261747268843814	14	-0.6388075718648392	0.2831157196649136	0.4714365859496917
Si	13.538564541206098	8.122894903775023	5.442831291109013	14	-0.35894738575629703	0.631164961300699	-0.7278341504592225
Si	14.993362868061599	9.38986982653203	6.766909080036335	14	-0.9759779526700141	-0.7192996234595229	0.7492673986290409
Si	13.52097692344456	5.548649582816603	8.020701416837142	14	-0.5504119425160201	-0.7731347122054435	0.7542481438552318
Si	14.742666168675091	6.703158029333237	9.62049193448092	14	0.7022547378501334	0.1375901301024043	-0.684225118903127
Si	10.739922673853933	8.240514129396548	8.219740584572847	14	1.5961954046280546	-0.4071782362358908	-0.7848887772870325
Si	12.25829324938353	9.533171525409772	9.43032784927553	14	0.15031941543192542	-0.5423746672852372	-0.45518771454741985
Si	10.843904181081806	5.3270976141569335	11.013294721463495	14	1.2965716461445982	0.9349428546499187	-1.5039770558892394
Si	12.239242705930183	6.756229722486122	12.352960796373548	14	-0.30091471046470275	-0.34369995987622287	-0.5976300346100076
Si	13.449114762516873	8.119318863195044	10.836443260053576	14	-0.2536673077700656	-0.11405243222804469	0.5437257831309751
Si	14.928750316673325	9.421143926876946	12.188040306716834	14	-0.23488332652212776	0.01705002782002997	-0.09144830269543082
Si	13.5578914150679	5.281308040003281	13.582501076150125	14	0.8671777743899678	0.5600893258305255	-0.13028330589307546
Si	14.988421430169263	6.648087004401545	14.936194982971646	14	-1.5095242156174589	0.5763690504966391	0.00633108974033263
Si	10.854307208223565	8.010932324161832	13.75569522333052	14	-0.11626358280337204	1.2488622158239304	-0.838829281351079
Si	12.221541305059283	9.516786757661501	14.98328493551802	14	0.2811364827894636	-1.0525264429246548	-0.8805673195657031
Si	10.899576631020132	10.87212239220383	-0.10570450859822698	14	-0.6281670524974063	1.428963772621259	0.2800720451869223
Si	12.322889546041898	12.1468020569377	1.3238014585188689	14	-0.9074322848348662	0.4297890506423371	-0.059462724070660666
Si	13.51011876386535	13.607240775071624	-0.025747492175855997	14	0.3602733047698974	0.17149735284345316	-0.253951929129006
Si	15.032715569171287	14.926149559887882	1.1816050812749368	14	-0.7887400359460823	-0.24778384746597076	1.6072210755724454
Si	13.62388561849844	10.771733180285846	2.612817795032478	14	-0.707596209152741	0.3121576398086463	0.9089366385576848
Si	14.787789298902476	12.096006025972075	4.116932972431884	14	0.4405108169378866	0.15601055705807318	0.055710710076968574
Si	10.924170037372448	13.50751800707991	2.7138246866870035	14	0.28895161452058576	-0.5404211414629887	0.7455722060629241
Si	12.251417498632025	14.85305203948711	4.143509455833098	14	0.05823810660667414	0.779706457403742	-1.2240212246627875
Si	10.802080761025948	10.941156230127353	5.414109183359811	14	0.5535697740702261	0.2721738667539595	0.10524819628026162
Si	12.123850378306193	12.343207958428147	6.781278261275891	14	0.21374369857987024	-1.4406373621063273	-0.0002046599834837871
Si	13.588190231618274	13.535004755356027	5.531744663711243	14	0.05008564585754861	-0.42475971152559533	-0.8095055680642583
Si	14.942209233037975	14.920119055091645	6.67224153304632	14	-0.13013983821621122	0.19829984025333677	1.643566477488591
Si	13.552706156226929	10.794717368377173	7.935559141573799	14	0.035891087606075095	0.9458361136703222	0.4197026044713961
Si	14.844567070474612	12.156148526635375	9.405653169273668	14	-0.7145281662063923	0.9514994873590121	-0.2754540829214044
Si	10.79897610761333	13.549308917675948	8.155404363593023	14	-0.7281331700079559	0.466111055500069	-0.030567099819644467
Si	12.099387009793148	14.872508951188184	9.471273513916302	14	0.9980341796589044	1.1046160082687266	0.33348907220778684
Si	10.792165375781458	10.665085897352897	10.713167388423718	14	-0.9236970970901229	-0.027443721076728583	0.4477561917300638
Si	11.976062373973566	11.952769346013968	12.142787138650178	14	1.313062201446964	0.9902655849340769	-0.24961730266976834
Si	13.438597952265749	13.457924826127549	10.913832029150324	14	-0.9624104870061245	-1.013134281204134	-1.4426227696345457
Si	14.55687460581522	14.968769461709282	12.110635282890176	14	0.33170163978921985	0.6373510407009753	-0.32568628178220144
Si	13.456640702464739	10.744555271877998	13.449114762516873	14	0.6368303918736453	0.0013434025297773715	0.4824380885040733
Si	14.800191657823042	12.195289916256247	14.830978116270689	14	-0.13408057134040216	-0.2227556798375213	0.12453739972360856
Si	10.816319904426232	13.40655987961511	13.454202492978387	14	-0.2618727332887862	1.4421959661514012	0.17147729822195595
Si	12.067462720251871	14.856741863176453	14.831189427759504	14	0.1396092191103166	0.6383810254922265	0.23881223256184603
H	3.7371265788511807	14.189361664464695	-0.9028185831326869	1	0.34281267143023975	0.3493679615544893	-0.7551362036328109
H	-1.1915627288171902	14.803091501638809	14.17071423831309	1	-0.08352775564618266	0.23252870826993616	0.5257928377440062
H	1.445204785263208	16.717113581464403	14.654082767090015	1	-0.15222306181096307	0.26410008182763045	-0.0022183496702237624
H	3.7427117040479128	11.776184462174555	12.613985751144234	1	-0.10577167332344378	0.5027431356594108	-0.4690603704128109
H	14.838851907438608	12.343207958428147	6.781278261275891	1	-0.003951274656003569	0.05578861456816907	0.06712256104044582
H	9.60430872538352	9.48964135871347	14.919420101705557	1	-0.061538377395616205	-0.02549559457565238	-0.005729708205949994
H	12.378340931653462	6.718469984907515	9.480164851176523	1	0.15530633131088464	0.012485287434639072	-0.024502633701011193
H	9.428107453169961	4.0663807624148935	4.111503892642277	1	0.07674852224854822	0.13714918553999889	0.023289843321497347
