225
config_type=divacancy dft_energy=-23049.551407668077 dft_virial="-60.59880945945919 -23.594583872782056 30.307386659321192 -23.594583872782053 -63.47629507723249 34.529827413279826 30.307386659321196 34.529827413279826 -57.89692629270115" pbc="T T T" Lattice="16.3199774331 0.0 0.0 0.0 16.3199774331 0.0 0.0 0.0 16.3199774331" Properties=species:S:1:pos:R:3:Z:I:1:dft_force:R:3
Si	1.2991844435167916	1.0704599597918951	1.3393968679119501	14	1.5626864461010965	2.1115446696721514	2.098951138703534
Si	2.9386893764460176	2.540955206423938	0.0436559396335425	14	-1.6820824065160052	-0.4682067634465217	-0.04709236504383222
Si	4.009753175402937	4.002245985783712	1.4680309300396444	14	1.1739916289012182	-0.11703080063090421	-0.5915401145487048
Si	2.729483585731109	-0.08269332565351771	2.9956297777101035	14	0.2813889653319022	0.4269204684366478	-2.470621896247116
Si	4.066660936712157	1.4470597590381107	4.050406239188789	14	-0.5718863283709609	-1.5523146072396192	2.228445372373856
Si	-0.0755288555603868	2.712820888771914	2.9802400389906905	14	1.3748561467114029	-0.27212244464755647	-1.3628650257192962
Si	1.4319800998899264	4.224915757880928	4.100802329502203	14	-2.1008694403828962	-1.206509426327259	1.0553196917444634
Si	0.1532609080742421	-0.1102414475605905	5.786574398454267	14	0.4138021748721883	0.611874472304692	-1.1340903883273084
Si	1.4406133679520363	1.3986547059715362	7.080520129215034	14	-0.9433405988465863	1.006901407687031	-1.799667023232869
Si	2.675856139885942	2.779161597037465	5.414788992550816	14	-0.4020951610179581	-0.7223656665537995	0.7185249494265623
Si	3.7164831809301306	4.258632831257713	6.821962726742431	14	1.7916006945119687	-1.0043197608350705	0.5034681873596926
Si	2.8108549932125455	0.15166155028579828	8.323596490316827	14	0.10570739569044005	-1.5900584333393932	-0.23462107377947264
Si	4.1688729553756625	1.4889531411088786	9.516684760541036	14	0.9806231686519256	-0.11282370099554591	0.6163211989558881
Si	-0.1051985745337626	2.789214703136255	8.219148634744988	14	0.29230844962657104	0.6008020072434743	-1.0180319797284842
Si	1.2005954598434347	4.030055227329714	9.676995898866377	14	0.8917128040180128	-0.030809555051334436	-0.8659662695631141
Si	0.09077171448290221	-0.1214532720571302	10.821597516136846	14	-1.9440687826599419	0.11000062735402333	0.29465895411025045
Si	1.2771524739821065	1.3612003577625715	12.162626381792107	14	0.07720257944808637	0.7242402594427195	0.09224380268148465
Si	2.7631027392432945	2.7307402239934575	10.934580719906197	14	-0.4413325421982059	-0.037763109389674906	-0.2669858904389647
Si	4.005999580593325	4.215172731353367	12.218212224929246	14	1.1591483807774714	-0.5266189338833699	0.07944226929246735
Si	2.498147905616916	0.0456469768803807	13.585075614861102	14	-0.21423040881697428	1.1238167656890605	0.5976380050365
Si	4.061977103188858	1.3319059982701573	14.739403938681699	14	0.4674207765501524	1.2731319073829361	-0.917482221310261
Si	0.1381812489260577	2.7028983424925888	13.779870865502584	14	-1.7270374117071983	-1.4421517431398947	-1.901861774834923
Si	1.478753155213191	3.8820656719663633	15.01653347547317	14	1.2606016256051946	-0.01332578176379548	1.5119827065245843
Si	0.19721060730158038	5.069621469840751	0.1446602799669984	14	-0.7243446463187175	2.201898967053859	0.41841628047972607
Si	1.4799445135658074	6.6889385906852326	1.5117684695603522	14	-2.037431273266223	1.1024737633159793	-1.5524423911740306
Si	2.5356838537130466	8.149805050631745	-0.0944437094053497	14	0.5036625629218957	-0.4259028249509332	0.7216647832435272
Si	3.909173154482742	9.534179776349319	1.2771687939595397	14	-0.49027610307254477	0.445430369857458	-0.20571670777036796
Si	2.717455762362914	5.3732872899384425	2.7504057968003432	14	1.9084031809904434	0.7700380729578572	0.5712767192995538
Si	4.211957695799046	6.780836383611018	4.0552206325315545	14	-0.01609280530933884	-0.25050073445777127	-1.5331986962948503
Si	-0.1475489159726571	8.036789206907528	2.8097778747019606	14	1.8232528007767157	-0.34424272020930613	1.1049497377392818
Si	1.4447586422200436	9.563914775232428	4.203144907985172	14	-0.8108245450934942	-0.2093689628776383	-2.2525214597022543
Si	-0.0664712680850163	5.564590065409241	5.483838817070262	14	-0.9416878923467952	-0.718328516980103	-1.6805027194073063
Si	1.0361064072952197	6.998626482455737	6.713320636970284	14	3.011591454474892	0.2771060180895995	0.8671368938153775
Si	2.7983702104762243	8.09844608164978	5.163314460284178	14	-0.38244857393511056	0.4237158427656153	2.9567991432182805
Si	4.108081039437365	9.617852300648824	6.919605151724667	14	-12.49496404662198	-18.685804105509046	12.337576148443905
Si	2.4410116646236335	5.53310882894079	8.23195981702997	14	-0.8063989015059233	0.7195230525118439	0.08310737992633846
Si	3.896786291611019	6.880665685569291	9.5588229422733	14	0.3481371734377344	-0.09656274539826938	-1.861872088238
Si	-0.2116211473750077	8.300732201933053	8.095214726118027	14	0.4437378112252044	0.8481947895902505	1.0511334180621983
Si	1.1479308926668208	9.635494196254005	9.801435726793764	14	0.29412262154046753	-1.298082684741249	-0.9668165901932623
Si	-0.39336041607000927	5.11841820236572	10.857093467053838	14	1.0233559675149146	2.5682359666107937	0.3018081695634542
Si	1.3355943131700376	6.4812179179167355	12.097607591698637	14	-1.3002393278837894	0.5760430343420444	1.1657046993438491
Si	2.5762389976342996	8.060208374524027	10.918815621705823	14	-0.719004203458238	0.7805461804013024	0.7422727066055781
Si	4.045608165823459	9.225569003089399	12.3822769580642	14	-1.4360443395624147	1.5945092737591013	-1.2854102208393032
Si	2.6145256646923527	5.323380798948023	13.70204089312413	14	0.8115994762369868	0.8775742958625186	-0.7129880741196235
Si	4.044318887606243	6.66018279044811	15.062947491292906	14	-0.20514000884705874	0.996433923707644	-0.3226973718475293
Si	0.0388578662682111	8.08702209744661	13.728136537039656	14	-0.12273351223099267	-0.38316848342475207	-1.279105099262704
Si	1.1460704152394474	9.688093483520886	15.060189415106713	14	1.0752555281758278	-1.371927914862286	-0.6323414990951988
Si	0.1166225587369326	11.00408750379377	0.24742717786322913	14	-1.22319589985502	-0.3979896200427456	-0.6031874787595077
Si	1.5491085779272853	12.483069138691024	1.0476935912727208	14	0.4554409684214545	1.0822635899469553	2.0061540341571535
Si	3.064777522094148	13.853539243635597	-0.3109282100554212	14	-0.6567947675740631	-1.1117323135738326	1.288428184264093
Si	4.245478929446634	15.0679740443423	1.3938076726739055	14	-0.688426819217313	1.0046740591481866	-0.6256550825996217
Si	2.5646681336342323	10.996988313610371	2.6563864068082537	14	0.7522437101476445	0.327485027064177	-0.23057441111609162
Si	4.096216415843501	12.471237155052027	3.855790508299072	14	0.03560415225234657	-0.5997542818255139	0.9988044828128206
Si	0.0557816828663358	13.85123812681753	2.6364270744075724	14	2.362707720860393	-0.7719178080574174	0.18521162862112298
Si	1.5524868132559368	14.879053985576734	4.323439461644553	14	-1.2676102015973862	-1.077133977722728	0.8218257905373438
Si	0.1055739340147239	10.816391443335686	5.487984091338269	14	-1.2631053679659547	0.9156911893442459	0.042922803546148074
Si	1.3831180874552251	12.021687056679854	7.036635709897428	14	0.5196635797713053	-0.13864608305738912	0.2631647137121606
Si	2.821218178882564	13.343588908783522	5.781237765833643	14	-0.4623143042738064	0.3291073945211904	-2.1203275654457774
Si	3.9813400946919106	14.965990505362859	6.85138764605431	14	-0.48663927459719536	0.6181911638552318	1.110991321020566
Si	2.7482515597791735	10.87426208331346	8.678507039554454	14	-0.7746033275643122	-1.0298626637486135	-2.248606437631265
Si	4.350204224634837	12.058847645295023	9.63642443496769	14	0.1514337324776776	1.7088504411145986	0.7880190980143128
Si	0.1550234656370169	13.517184508739406	8.279059271901897	14	-1.0640365101113616	0.509954057640298	-0.10101589981276586
Si	1.484954746637769	14.936369746321782	9.543221043847256	14	0.826881869149415	-0.9536882693180543	0.43636516671967984
Si	-0.1434852415918152	11.042504730671288	11.053847114987292	14	-0.7571848603519049	-0.7076314332956269	0.290760901334374
Si	1.522327494959568	12.108754136285443	12.328013033099142	14	-1.6756507865576546	-0.13668998612982047	1.3173981134588617
Si	2.7623846602362385	13.3007326480442	10.949219739663688	14	0.905549978629986	2.266307212207824	-1.035461245583236
Si	3.775398299463622	15.07138491962582	12.329645030842451	14	2.4224653507112746	-1.7330789949884822	-1.9191522010023865
Si	2.826293691864258	10.695101371052887	13.789564932097845	14	-0.7844097803658889	0.3215591435222997	-0.9253554600216185
Si	4.210374657988036	12.193618018937563	14.84243195621686	14	-0.805628341241475	-0.1260859764579337	0.4008821135279122
Si	0.036883148998806	13.755178739646304	13.646210250325494	14	0.4108916836497807	-1.300249355194538	-1.9137323109875146
Si	1.3134644237707542	14.985868237876375	14.995660224336234	14	0.8496559487436907	0.7620861584237032	0.4300104228104018
Si	5.393050782609927	0.0567445615348887	-0.3273134673982536	14	1.0206051419328883	-0.09554844434947098	2.5200297987422733
Si	6.831607833405392	1.3972348679348565	1.2962142076239673	14	-1.2981937564910795	-0.3146518690797219	-0.808633706250196
Si	8.221319191743591	2.6141829451662573	-0.1067652923673402	14	-0.00044454410985360284	0.4730756655912861	-0.045294391093452666
Si	9.466125470453292	4.01634644628591	1.312452585169902	14	0.0831572593695493	1.163674297472528	0.8987247224471208
Si	7.995336464227454	-0.15404426699103088	2.5198697955803726	14	1.0635022344258347	0.2618195114086591	1.320690928042375
Si	9.555281507170317	0.9974607007336389	3.9863666477413053	14	-0.6188290550851605	2.9888109471173165	-0.8112783451825003
Si	5.368554496482844	2.5826201088106417	2.748577959327836	14	1.8868310931333372	1.6269052007929672	-1.3215792449304864
Si	6.742370196801201	4.083503153423117	4.020524360508784	14	-0.5564347567284671	0.20734010366950945	0.7259289614169928
Si	5.330692148838051	-0.1099313679893616	5.540452818785686	14	0.9556932172467058	2.007901100222194	-0.9040811061605852
Si	6.95883837747384	1.3838851263945806	6.657816393720311	14	-1.9553412797150673	-0.13315471631461687	0.9372025991157967
Si	8.191127233492356	2.7574397070740093	5.298737633024042	14	1.458514257397317	-0.423971410634438	-0.12326547392173129
Si	9.667367112180848	4.154511375234535	6.815189936107695	14	-1.1390775613167996	0.1568004006124227	-1.2673793163396367
Si	8.152106167449812	-0.0632072725983963	8.078470429271665	14	-0.2853777781255799	1.4546522000959226	1.174142809894043
Si	9.598611047255197	1.4154316427727631	9.424705367728084	14	-2.045630013911111	-0.029956976527173333	0.1755111053587363
Si	5.438420319873945	2.815179787232317	8.050024708605772	14	0.04173238178291951	0.36292925656561037	-0.041551118857849074
Si	6.768172081122933	4.190545885406819	9.58704018325513	14	-0.7369952558254421	-0.5893497899264708	-0.9075063326680864
Si	5.474046830610402	-0.09348083073679679	10.827505347967628	14	-0.3073743554710428	0.6391251033718774	0.8479235379789749
Si	6.947300153428638	1.324366168696065	12.211929033617501	14	-0.47969163380109114	-0.563902017909773	-0.21984313173085754
Si	8.140208903901083	2.821103939040532	10.87316864482544	14	0.49481256129941403	-1.3613635002123297	-0.6851057224752777
Si	9.56497557376558	3.991556400565031	12.192149220968584	14	-0.330766785894814	0.5450105644594531	1.5426459656832023
Si	8.297957805769427	-0.1414126044578115	13.530876969805778	14	0.3435053272034877	0.7805585217068391	0.46816125488235505
Si	9.779028397778118	1.2484619536547168	15.03928352401491	14	-0.3678917469440282	-0.15026182267275412	-0.571055090020957
Si	5.650939066007773	2.842923748868587	13.412557133415802	14	-2.096383375820302	-0.9781651919658639	-0.038781267096453555
Si	6.73988956023137	4.0875994677588245	14.935129428036866	14	1.3653759671749528	-0.062212521210559035	0.22632488824295086
Si	5.465837881961553	5.356151313633688	0.06581846898769231	14	-0.07576147491614336	0.5718667879705278	0.9931398235714705
Si	6.906842929371983	6.923097626895351	1.4029631800138747	14	-0.7457601538618269	0.11498882878564261	-0.5368879285320413
Si	8.151078008871528	8.46391565628662	-0.0131212618562124	14	-0.45538080455696306	-0.015609180398618987	0.41440561329082715
Si	9.639149871199018	9.639329390950783	1.386023043438317	14	-1.0560426865604893	1.010269041435361	-0.1468533083498338
Si	8.185333641503604	5.568751659654681	2.8648904384935396	14	-0.7031086019269545	-1.5321314304764568	-1.933237487277754
Si	9.612042388682639	6.835410388147305	3.986954166928897	14	-0.07368042227001552	0.05459922124706856	2.4129702587639676
Si	5.335930861594076	8.297043887033174	2.5677036494367886	14	0.8552864122842829	-0.5565095758932833	1.2931438485317768
Si	6.62728171594298	9.539320569240745	4.295303820549888	14	0.6026418902105724	-0.6154416238258654	-2.0881800071858376
Si	5.258508888651451	5.3998398932220955	5.521211565392061	14	1.8301970991359036	0.1065329776087396	0.17895330116135055
Si	6.86401930858753	6.790922129664675	6.8567079586975	14	-2.108386066786349	0.22538026414832846	-0.2941010242557783
Si	8.058184697322321	8.141400262253699	5.453336779247798	14	0.46587245692635926	-0.6474917371941714	-1.1700740357249086
Si	9.225128363698705	9.616791502115673	6.693328664614737	14	0.863133682831907	0.16675212086458785	0.597637490815436
Si	8.094464007156104	5.4059598847595085	8.133697232905277	14	1.4320822662640667	-0.29345439126776107	0.8311779290288505
Si	9.57897811440318	6.551997660044091	9.688991082279706	14	-1.084824153735291	0.9308206014901252	-0.741213154103145
Si	5.295163557966193	8.27581159639271	8.13514971089682	14	1.3374591627193169	-2.3428739573102386	0.29591108240116254
Si	6.767225522431813	9.379156310712302	9.450556211982114	14	-0.7098153301545608	1.036458063115857	0.5387553223260649
Si	5.354388756070913	5.633019730786229	10.795420272334153	14	-0.8834212464710673	-1.4274555622404603	-0.006144170383557864
Si	6.624017720456361	6.87239145701071	12.117354764392687	14	0.9154037397694533	0.5941094200951289	1.7723953091020583
Si	8.039661522935754	8.101106237971376	10.765244634060352	14	1.2386397581815536	-0.9605425789910369	0.5978876593630865
Si	8.031452574286904	5.45002382382888	13.441035494036562	14	0.5392826560272271	0.4564298155275834	0.6727541325172863
Si	9.283374363157439	7.01922229397631	14.977022810107634	14	0.601579252381755	-1.639144176337936	-1.0554009386725802
Si	5.405666125165713	8.21115184580277	13.722816224396468	14	1.5253601675053148	-1.4048889708455206	1.1717375408670445
Si	6.755475138679981	9.900285830106052	14.974868573086466	14	-0.16610574498710262	-1.6707530880333044	0.3108134659472729
Si	5.329402870620837	10.994719836747171	0.0573320807224803	14	0.08707073877734671	-0.007839300121131492	1.0930486054333806
Si	6.620557885240543	12.27678462393664	1.5990966688048704	14	0.9295201364191943	-1.0554186792992892	-1.6669511945964015
Si	7.987649754856464	13.440676454533033	0.0125337426686208	14	0.6227672171040314	0.4468401069044951	0.9820953835582422
Si	9.539695928721708	14.948528129509443	1.2555774638155486	14	-1.173633988151186	-1.0333637378630591	0.0031151512058914125
Si	8.062101491906267	10.944992865508514	2.8164527454720987	14	0.7494165227376095	-0.19193995413341852	0.4586304245710981
Si	9.525742348016408	12.580515723944066	3.9405564710865937	14	-0.9529819866866095	-2.111818235278215	1.4419609671251397
Si	5.7175245739348215	13.938076726739055	2.712331289448921	14	-1.025788747368839	-0.20082389434612613	1.7573399447893994
Si	6.9956562465629135	15.057268139146187	4.397368959416496	14	-0.7690813646682302	0.07021225830366777	-1.346748566241012
Si	5.584500437877622	11.223020001058806	5.3259267154275864	14	9.701239058107818	10.465721486689898	-12.203233324360848
Si	6.807584826623869	12.680801985270465	6.890881991442412	14	0.22407388553516122	-2.5426346996064835	-0.3346064745799232
Si	8.40504949768543	13.776476310196498	5.69541100451297	14	0.1782801857885358	-0.3361812765885138	-1.4985669360745837
Si	9.681842932164008	15.24643299757325	6.824149603718466	14	1.0812042945550544	-0.6725515294180586	0.15116659463491422
Si	7.940778779668601	10.869235530264065	8.176194454141068	14	0.4422925929247492	1.3186504988603058	-0.7217414021820676
Si	9.609855511706604	12.19660457480782	9.273239657171484	14	-0.059522887935152126	0.24150417983204106	-1.0820067365254726
Si	5.321275521859152	13.724644061868974	8.223163349193529	14	-0.17799864975597957	-0.5535821153757626	0.47853257952276834
Si	6.854912761179859	14.80359040992608	9.485007684343389	14	0.2812799504663279	0.8571664044943752	0.6808626273654373
Si	5.470782835123782	10.618364837162451	11.054238794445686	14	0.9714926594390159	-0.30342770880461545	0.12166367530727903
Si	7.469849510859067	11.576167992733657	12.34738484631223	14	-2.458806381748375	0.8352760137986345	0.15158697035475843
Si	8.317607058598881	13.316611986086606	10.704354798257455	14	11.157978481502635	15.139779099640723	-5.376927102083009
Si	9.562543897128048	14.930951513813993	11.974881361401723	14	-0.17846864780850263	-0.47376755003293797	0.6479589070308422
Si	9.3513960290986	9.534473535943114	12.099451749148576	14	-0.5128745761734543	0.5566193620904537	-1.68633630026819
Si	9.311836403800765	12.298457553967797	14.88966197090825	14	2.5421683011014085	-0.22731347823854778	-0.6270637912045309
Si	5.401047571552145	13.649180486218318	13.603745669044567	14	1.0188686173996602	0.5858839399549112	-1.405589854155793
Si	6.895549504988279	14.940710860318987	15.02111938913187	14	-0.10823170689376146	0.08523574091035703	-1.2420256467776567
Si	11.113986231828266	-0.1782467935243182	0.2018944408248801	14	0.2139578716530386	1.8196062021011497	-1.3788099924727266
Si	12.230958127304495	1.7043605232483654	1.2970628464504887	14	-0.0811687665149468	-2.097839649873634	1.3963104779448465
Si	13.786578376227588	2.6418289869379286	0.0140841405247653	14	0.28381094654348166	0.3470411112397553	-1.970914978860268
Si	14.985982477718405	3.959748764547919	1.4864072246293147	14	-0.3643045408013576	0.44063911509336195	0.23936244910035773
Si	13.686814354179047	0.1043825756621076	2.7984844503182553	14	-0.9488823592536336	0.7498435833312861	-0.06518677584490634
Si	15.135081791547208	1.2630356935024754	4.316846190761581	14	-0.8996536627992903	-0.45537489101472667	0.5488901052770246
Si	10.972524667438154	2.9679510959835658	2.827958329562434	14	-1.2996469452180273	-1.6619485949749893	-0.3635416938528696
Si	12.41576555175692	4.118640064836581	4.227837033841452	14	-1.0600734083708852	1.1801491690324408	-2.1359506298131246
Si	11.071864370073435	0.13648397127301531	5.418885306886524	14	-0.569577732904	-1.516575729068497	-0.7941604401820185
Si	12.128011709656501	1.5150651050018384	6.824671842996326	14	0.3865829112899086	0.9508302286441777	-0.22102584017812563
Si	13.533961445540633	2.6986061884276835	5.378950322107729	14	2.294685272957895	-0.973775286742243	1.9820026134428745
Si	14.833488608583519	4.306091325633167	6.779383905619472	14	0.5209331915783945	-1.9993686301067506	-0.14247882975813386
Si	13.538269919582971	0.1154312003843163	7.901545553919428	14	0.8482282139594124	-1.3682916006080006	1.9616530861654986
Si	14.994615745780516	1.2726971201428703	9.365398569736199	14	-0.31963569963229693	-0.4929001731622879	1.1677638975947555
Si	10.87331552462234	2.861789642781251	8.26543209074526	14	-0.20699660399873765	-0.7333707686556294	-1.2259948051065335
Si	12.344985809629566	4.01407796942271	9.448336695051212	14	0.9243943808529472	0.12597336204491125	1.9516669131020432
Si	10.873674564125867	-0.047491134330321	10.586622481055072	14	0.6275337892570538	-0.24965895457595474	1.2797113658971953
Si	12.113552209650775	1.160497275290308	12.22472389592505	14	0.1582175938648883	1.4466622332030306	-0.08209770686711629
Si	13.656132796604819	2.5070912532502554	10.917591623398339	14	-0.39144898521882093	0.5471710642599735	0.2575759020777547
Si	14.861150970332623	4.049182240881307	12.536827144355657	14	0.17626983853871198	-2.0412228822818452	-0.9262594606521825
Si	13.577209385738348	-0.1083483301783509	13.516711229393847	14	-0.2240841699564418	0.6342567154481771	0.5676496610244209
Si	15.173303178695527	1.0148577966773236	14.853268421232437	14	-0.7983084043950135	1.1113900994557209	0.7715478260018481
Si	11.001476307404474	2.8738664260817446	13.708144564684108	14	-0.6313588226418382	-1.9097643241469298	-0.8781556227754039
Si	12.333121186035703	4.298600455991374	14.869914798214198	14	-0.14348233216458767	-0.38322736173658345	2.030039602581329
Si	10.749136816333882	5.585463316546176	0.0623912737267413	14	0.7137018129564967	0.4492569459054343	-0.6727258503587646
Si	12.25046050033705	7.09829258463968	1.397185908002557	14	-1.1275150435815617	-2.0137452226148906	0.6056382563506728
Si	13.683387158918096	8.202877617244186	0.0831013250893452	14	0.47252570616330636	0.8527325333697799	-0.5666222473384899
Si	15.120263252037953	9.52770074530838	1.548798498356056	14	-1.4514198064874322	0.923855734288376	-1.1194091198387308
Si	13.50951411934585	5.485128095287477	2.6708295868365473	14	0.4301127528021437	0.07823076446561358	-0.24480162240513098
Si	14.643507751284803	6.8752964129938015	4.199636112837056	14	0.9351788821183081	-0.6424719111671142	-0.3657613290757535
Si	10.804526819741824	8.304208357126305	2.816028426058838	14	0.9149365699327824	0.36188898735307845	-0.9593902095865467
Si	11.98560358657527	9.737951014579007	4.180329579533699	14	1.4364112362916	-0.472777931595213	0.03427180547544584
Si	11.1138556720088	5.528147555801128	5.406988043337795	14	-1.4845011901996497	0.5403434940823203	1.1862910254212107
Si	12.145669925239115	6.88977223297696	7.109912408572047	14	-0.9921291220701203	-0.6014800077163973	-1.2771027224393727
Si	13.168230751264861	8.092685129615896	5.535671065397787	14	1.152231079024145	1.6342179385445323	-0.8940491674224313
Si	14.767115260363102	9.51043420918416	6.606277904986581	14	-0.2503202428642968	0.4367639451548348	0.5243908140129295
Si	13.545450709653535	5.524083881420287	8.193020350874594	14	0.8402063653605505	0.5700603293725918	1.250331345403863
Si	14.877781027336955	7.046362416447556	9.639362030905648	14	0.05227982713776298	-2.1934505720823845	-0.7265933350317191
Si	10.442337560569035	8.0363812074717	8.057254458608636	14	0.35379437647365625	0.9420478470916158	0.7927679295406262
Si	11.900037944893526	9.57062228595743	9.195899284116022	14	0.5972464256962415	-0.8183815378504735	0.8363376231853237
Si	11.019281402783985	5.249124901627417	10.983964971618759	14	0.5713538524591583	0.6246243264767743	-0.6463612221849022
Si	12.343631251502618	6.811077301794553	12.167375495225137	14	-1.801048221010853	0.5763171141691721	0.14503965065700133
Si	13.347391463525435	8.302527399450696	10.745595381230899	14	-0.19598815945999165	0.5524788540828871	-0.20535238214650298
Si	14.858996733311455	9.31591639815904	12.219778942762822	14	0.487311875748946	1.0786380743350146	0.6080301556300066
Si	13.659706871662667	5.60432921045884	13.584063776260251	14	0.4928783187670666	1.0831066553814321	1.4343139856819551
Si	15.1169829365739	6.765968884169465	15.224188868331934	14	-0.06711227661916525	-0.9806105702358567	-0.6295523640439022
Si	10.544647499097138	8.244362999879128	13.403352666143535	14	2.56369513750488	-1.6213043049635565	1.7867035102086828
Si	12.09483319553501	9.368287205741858	14.982065683134461	14	0.6741782677541163	0.4592474898479336	-0.7343655293039948
Si	11.017208765649983	10.970827389785113	-0.0511631292527685	14	-0.8327761280958546	0.6229181409863241	0.23243563425734678
Si	12.487034893207268	12.392835983463414	1.3376506303266082	14	0.041568345263494066	-1.0783508818707541	-0.2673201341305839
Si	13.995555687258433	13.662448627871429	0.0288210801468546	14	-0.6958182327916747	0.804014458432018	-0.31212087300256813
Si	15.24702051676084	15.368849148298931	1.4421474458307477	14	-1.4412649689149757	-0.6725839253450926	-0.946495345074408
Si	13.724676701823839	10.93343832148588	2.866114436801022	14	-0.8342694260657965	-0.052524339253709064	-0.2697266887102425
Si	15.204686495299379	12.395186060213781	3.9330656014448007	14	-0.5631085748079754	-0.7800844098858039	1.9569255948133424
Si	10.94523766517001	13.663036147059021	2.5603922995467596	14	-0.21254067840057297	-0.4156996505984576	-0.6090184885150716
Si	12.171618689357745	14.894639564025345	3.9358563175858605	14	2.175243546868288	1.6526111117838078	1.9033710136578497
Si	10.704860717557882	11.0789472402794	5.513851255569733	14	-0.27235641523168996	0.7364967185038654	-0.4564429281647162
Si	12.234107882949084	12.455276217122455	6.700378894865835	14	-0.04221086448299908	-0.3772333439037222	0.5128745761734543
Si	13.804399791584533	13.730976213113015	5.494055122943383	14	-0.9613974715099863	-0.9933953914402931	-2.1081803783607374
Si	15.04164992074271	14.884521178016824	6.966215007273601	14	0.20310240788084138	0.5052625617626239	0.24173635064245044
Si	13.456147793139612	10.911618511657826	8.044508556233383	14	0.4200692440900493	0.361065462319035	-0.30592245229675513
Si	14.852256582631584	12.304773385234407	9.467349468760775	14	1.7372580695758508	-1.9256812658523705	-0.9926145467545641
Si	10.980733616087004	13.84381253708547	8.185806920849164	14	-0.3066472468865049	-1.0706326808102016	-0.7766735815680953
Si	12.46172260820853	14.892942286372303	9.554171748704865	14	-0.4995917318685052	1.534134321520852	-0.8803490327240224
Si	10.705758316316702	10.873250244712608	10.712074147583312	14	0.6367398889663761	-0.5597113733484638	0.8907828352237154
Si	12.23835107708169	11.914840164425348	12.159346066328053	14	-0.898032838005469	0.945815801938293	0.7602881844733237
Si	13.465711299915409	13.27803155943476	10.785318206303064	14	0.029462552974108852	1.8828538503136	2.144680560817156
Si	14.781542120413963	14.804390088820302	12.238808036449818	14	1.2020971524873532	-0.39231364793798673	-1.492094435541643
Si	13.60312550990211	10.749610095679442	13.66329726669795	14	0.5614892926773462	0.00924826583657264	0.4303387529597847
Si	15.315303302340931	12.28951420633446	14.955659959647708	14	-2.1946952441678684	-1.4613869533715182	0.4904697073031519
Si	10.95385461325469	13.673219812977276	13.419770563441231	14	-0.38851895359598015	-1.2749522499496009	0.49105000577390934
Si	12.338865818092154	14.849531146400258	14.926137120471228	14	0.5238223426266447	-0.17594356527358523	0.8550814951902671
H	7.635608257651577	12.533302029230107	11.013027587431623	1	-11.814076993756002	-12.66668559984935	4.758363127956354
H	8.775987896760103	12.270844152150993	13.079175898407922	1	-0.19244826165521176	0.12823439206344947	0.5701130370316547
H	8.373354469512606	10.491916020013049	12.976149512870505	1	1.3329291322557482	-1.7595076436848163	-0.08217843957416894
H	4.5550476853818775	14.409916650289356	14.62142355782233	1	-0.5265410293921694	0.8664604360056466	0.5219186962476071
H	2.1863857447146637	14.137462787032467	13.91236133829772	1	-0.0009765058005922403	-0.1312024760450284	0.2600673031329782
H	0.441639805310349	0.2054342439301195	0.5098083510484077	1	0.17061494949757833	-0.21445512342195522	-0.02908228649725895
H	4.988493230023067	10.64833647571834	6.118423187581179	1	6.072387179903586	-0.1695260863944956	2.9580348164351435
H	14.335159729661555	14.358916720810917	2.3476059057830287	1	-0.02358629176491042	0.06637154117643056	0.04061832184769935
H	4.488878336879375	10.432100038725252	6.3593011585005055	1	-6.178237271939295	10.148245772637058	-4.004586781927371
H	16.061591390390443	0.01979939662183692	15.75858979337428	1	-0.9791982620834995	0.5525032795834286	-1.248590964212655
H	7.582534059041393	10.84944755762643	14.00331420453013	1	-0.6172377980025209	-0.006751722570708855	0.7726593148317482
