232
config_type=divacancy dft_energy=-23134.21775580997 dft_virial="-72.5466400479671 69.40388379958758 -17.921000514277587 69.40388379958758 -57.164954182831224 19.933822492943342 -17.921000514277587 19.933822492943342 -35.947299562650365" pbc="T T T" Lattice="16.3999889955 0.0 0.0 0.0 16.3999889955 0.0 0.0 0.0 16.3999889955" Properties=species:S:1:pos:R:3:Z:I:1:dft_force:R:3
Si	1.2299827746735044	1.5312177725428486	1.5660677491582857	14	-0.3961973025240704	0.042476973883634396	-1.8175693724665283
Si	2.5983814564690286	2.7643001451365024	-0.060384759481430995	14	0.8839609214777665	-1.2384230140030652	1.5839546293093614
Si	4.140915221418773	4.037496890813149	1.2909743337477688	14	0.05970595063394668	-0.11498780034351455	-0.5149538290458581
Si	2.643448626228663	0.23014104557385148	2.7541977519152745	14	0.3547120039624171	-1.2678912234088784	0.22293282899407948
Si	4.179520795514179	1.291695933263571	4.166696004119698	14	-0.08205245541348169	0.29383080108663073	-0.6492488305699605
Si	-0.2199074524406595	2.934482830942806	2.7702697411308645	14	0.39683725063825526	-0.47819345073104086	0.0826049859467815
Si	1.4200586471313494	3.7393942908419455	4.320544300886484	14	0.12934022446164517	1.1111548433189273	-1.0677682123730246
Si	0.18284347731082948	0.0577771612311465	5.34774121163063	14	-0.9193966663316434	-0.27610123013048565	0.29675877582521537
Si	1.4526946252323945	1.2707695473053129	6.90373936754568	14	0.23509261449518778	-0.374330051776211	0.1650032550258231
Si	2.9674632088127564	2.516184711623583	5.676298591166478	14	-0.667625805845719	0.9709275304896472	-0.10140799337408843
Si	4.136716824235924	4.112280840632629	6.975079319676105	14	0.5120466802603666	0.016778519098222335	-0.5493773297351926
Si	2.7384537624795944	-0.14194190475605248	8.296114833252625	14	0.3717890283883087	-0.420827977270025	-0.6515983066115119
Si	4.166827204031662	1.274016745126422	9.660511917733247	14	-0.20872155855802502	0.37142624542763575	-0.3147691114823207
Si	0.06833875414424849	2.636757430718499	8.193024502426912	14	-0.3522195744650656	0.6739440400594507	0.3232846123026511
Si	1.372285479187458	4.2705571344282	9.439702465897836	14	-1.3093952910393687	-2.213337300402134	1.2477365859147695
Si	0.24829583339187	0.12527951593662448	10.712243212014663	14	-2.3281826615109122	-1.0492696238156232	-0.5875101640699048
Si	1.4355566367320969	1.2307371741672974	12.2522513786591	14	1.8408391611665287	-1.1922297644896886	0.09163136539422538
Si	2.5049343191726696	2.703964585622058	10.876128302046693	14	2.5203606999969765	0.8734309596390999	-0.7551706564441009
Si	4.1467536175011706	4.215174371590396	12.067144702866889	14	-1.5833702170700918	-1.9884717715388986	1.6840814409024203
Si	2.680053401666619	-0.2917066042629585	13.765839163031785	14	-0.37865902180374433	0.09850007325700096	-0.17698254893345702
Si	3.9575305444710915	1.42843904150805	14.960676761287932	14	-1.0117047466461315	-0.3927857028747659	-0.2289746693858955
Si	0.0087083941566105	2.626261437761379	13.088224417715715	14	-1.5177792634688583	0.3758652587628714	2.484969949486202
Si	1.2491379618202485	3.6158859737168356	14.809026063046543	14	-0.5472014033027512	1.843435206208282	-0.700652425014617
Si	-0.0017055988555319999	5.149694944520973	-0.2389642396534305	14	-0.8612143527104164	0.2835324958373096	0.17057201203873185
Si	1.2547631580457048	6.577773186271122	1.0979792632487249	14	1.384375921269783	-0.05892999104832598	0.17633874416129197
Si	2.610451848369717	8.174558114817978	-0.344104569103581	14	-0.22773076863200784	-0.5124639706538267	1.5578440263411297
Si	4.018899303292252	9.319228146736894	1.2721471463809348	14	-0.6088428820217053	-0.06895704468637148	0.2043442517504729
Si	2.657536216775797	5.120027364428113	2.6543546189106704	14	-0.6001908555088751	1.5021981081182287	0.872753216276709
Si	3.917465371355085	6.708235098730324	4.219241568861281	14	-0.23941669942261287	-1.0877855528430374	-0.041122772711512406
Si	-0.055202362958853	7.8371775412025535	2.525795105174946	14	0.17137034024063783	1.850854901941165	0.806668610454007
Si	1.3291699081182884	9.466204848114565	3.9984977169818503	14	0.1184230541617644	-1.3124862738552505	-0.15551381951022059
Si	0.09128233874895299	5.361664802287811	5.413160767733681	14	-0.5566872392709057	-0.5639642386585207	0.5295633636960033
Si	1.2144027851277794	6.8127522285986455	6.9142353605028	14	0.9752888964442145	0.23599610090468784	-1.25840487321966
Si	2.763939345378601	8.248161265429783	5.569075463113899	14	-0.801407871858452	0.005919969999640952	0.23417627255908702
Si	4.242726353102837	9.589959165074607	7.031757681644552	14	-2.3798965883677106	0.5749361735017207	-0.9672050842071367
Si	2.6589794158074014	5.527895090746198	8.194812101227422	14	1.5730300028040525	0.3077919029750348	-0.44190641290566296
Si	4.069411269398392	6.648621138731682	9.781068236839168	14	0.4933179777768119	-0.03416896126263991	-1.093385163119788
Si	-0.181646278114158	7.962161857337258	8.29278563548654	14	1.1015666773590311	1.989285269262194	-0.14856103650347618
Si	1.3126387192108244	9.497906026842866	9.512994016718727	14	-1.1211443588192986	-1.5528224005403486	0.40744331719439814
Si	0.0834923439760905	5.585934651801273	10.91634107506366	14	1.1446974833255792	0.3408596598290553	-0.15373847128665832
Si	1.2852507375883393	7.070133655894023	12.329938126530783	14	1.058468010208985	-1.457593801692704	-0.11499782765426313
Si	2.7470473567132365	8.178805711967813	10.809495146757978	14	-0.4845818761200128	0.66913684444237	1.5445658100257569
Si	3.9606137424022454	9.577216373625102	12.342648118002295	14	-0.9929007107766965	0.4147905077572533	0.2394123285435686
Si	2.62286664003931	5.245864479990584	13.711604399423667	14	-0.10215284258533534	0.7016289308152093	-1.4644257427494014
Si	3.9977761174660484	6.527507219999914	15.04746550305212	14	-0.22310509305052942	1.3838308469419118	-0.7412200960875094
Si	-0.206574261387318	8.240650070469844	13.592638879250309	14	0.053047044965295165	0.47346313116303246	0.33913753348562015
Si	1.104342458978979	9.728342272218637	14.986834743735756	14	-0.009519260337316248	-0.6151706293251218	-0.015904086178839972
Si	-0.40598172758360246	10.944565456124915	0.006609195565186499	14	0.7538971879790316	-0.7665202866588307	-0.3557378749851562
Si	1.098569662852563	12.08434829132317	1.3416338997548685	14	0.7005966320291699	0.21865913773092935	0.5626390909765163
Si	2.5128883138354876	13.86499349649858	-0.2094114594835395	14	-1.1793099602559445	0.5334017668284525	0.4729854197945489
Si	3.928026964268187	15.319836520289384	1.2370675699195604	14	0.5098694682752652	-0.521533287560117	0.3416744431050103
Si	2.660012615114118	10.81841674077153	2.636199831092652	14	0.4553211549135356	-0.22298219421622634	-0.3700514754129526
Si	3.9721593346550774	12.163888237951346	4.078316463422949	14	0.13326090296433898	0.7162976008877181	-0.6262081273539856
Si	0.0233371843405965	13.685790816744749	2.6470894237856637	14	-0.9726524850489344	0.039471351764381296	-0.22494600445975543
Si	1.3580338887503685	14.996182737463192	3.992856120767398	14	0.775624056376411	0.40774593629057954	-0.005274622564283784
Si	-0.008560794255651	10.722657205026804	5.42263996137308	14	-0.30513955072677007	0.7572931038858831	-0.4970213978799532
Si	1.340764700338107	12.15439264432295	6.667120326318606	14	1.1397257369680087	-0.8498094437313035	-0.02588357436846273
Si	2.6761338042966942	13.581913286447252	5.375719592856954	14	-0.6024696261541224	-0.2630739536943594	-0.5112090141470623
Si	4.015668505460138	14.835233245461353	6.693950708315243	14	0.9489926596718676	0.8522607355435327	1.506509080408521
Si	2.5404566953369225	10.951699451337959	8.40714275875216	14	1.9043130666471522	0.568710241968982	-2.0839543955921744
Si	3.9912161218678484	12.289085753942992	9.740396264130327	14	-0.15873104359732187	-0.07760675720441364	-0.36835480301218687
Si	-0.0316027787943285	13.457043770235515	7.8129547574561995	14	-1.803247801612239	0.9971381494548326	1.3811872364517352
Si	1.0641460859510086	14.839956442292058	9.31835894732013	14	1.031138446208471	1.312944444823301	-0.38426788805964734
Si	-0.2565450278566065	10.776006369229167	10.676442036037486	14	0.38843616400467135	0.45598758541251794	0.6873094168451765
Si	0.9446885661077865	12.28183695880698	12.112457872461457	14	0.991272172666915	0.8119923411299055	0.04248674408385097
Si	2.401515988567047	13.75553996994261	10.760967579320292	14	1.1976023461666703	-1.4359998594403762	1.4565319351954829
Si	4.009666109487785	14.835774445098204	12.277097361987282	14	-0.1549168088548822	0.49394044237481977	-0.46593287790138277
Si	2.3756696059101388	11.192467689780893	13.604561671250039	14	0.6698004467255001	-1.1770831259381644	-0.37938895860413435
Si	3.9583833438988574	12.26143537249658	15.024095518733532	14	0.680806063048394	-6.287960991250338	-5.098276363917064
Si	0.454640494933251	14.108631733015725	13.65477843755426	14	-0.24747634326968102	-1.169573441519076	0.4593994421723544
Si	0.0757515491702145	16.312363854297043	16.25793229082098	14	0.7212390082025106	0.019173503703940272	1.4837535127725507
Si	5.386199185825078	0.1713306850359885	-0.2634330232347165	14	0.7384348176941931	-1.5903250569610925	1.231843555488806
Si	6.691277510108978	1.3752538771956435	1.287005536410858	14	-0.09777682133044331	-0.20791346015590248	0.43597307315835715
Si	8.014264622375963	2.5102971155741987	-0.2060002617724755	14	1.8136934311964048	0.635159173415549	0.03110883171059967
Si	9.493904429527962	3.8243626338276315	1.167810416391564	14	0.2323127354230437	0.9033640248867959	0.25576764370609456
Si	8.329160811078557	0.151339098450474	2.4995223228041548	14	-1.3364646591814835	-0.7543173065883437	0.9560012356640594
Si	9.621069944199071	1.2547795580347003	4.11588883821164	14	1.1659381557069184	0.35967912233041116	-1.6977350385945347
Si	5.428117557697576	2.7450301580667897	2.7754521376534425	14	-0.44146623967485366	-0.8997287390746386	-0.9583769369798762
Si	6.879795383612249	4.074347666086037	3.8410414226360547	14	0.40257904303920994	0.7592877673932541	2.3535157622303315
Si	5.4609175356885755	-0.13692350812342952	5.378901190722081	14	1.3319819370558055	-0.6569117528661299	0.3702139692691859
Si	6.93362014749548	1.3719082794405615	6.656591533383494	14	0.22772639775296358	-0.7370250806471559	0.3328028441978393
Si	8.403583961140138	2.726432570545893	5.2687096646613165	14	-2.8257486194976726	-0.3460093266747799	-0.465259248307504
Si	9.375135709222553	4.1491480158945135	6.640798343980828	14	-0.1790204070102064	-0.7832324712397931	0.7456223426166669
Si	8.316664019463985	-0.13810430733110549	8.194795701238426	14	-2.359693099872519	-0.20171889610806967	-1.5875300083675594
Si	9.632451536561947	1.233869572065438	9.282672571265923	14	0.7179065985970667	1.3321053501111726	1.6623453165258884
Si	5.679447389053614	2.7057685844115626	8.154353328375523	14	-1.0685788818804671	-0.20964921335753442	0.5616044781956887
Si	7.046452071784521	4.125646831663962	9.472732043734771	14	-0.4102697332728369	-1.4875865165838273	1.5696495135291217
Si	5.592379847476504	-0.2283370467843465	10.96273664393193	14	-1.4512693968262036	0.9453977402132369	0.4554617943745476
Si	6.6751563209264	1.455597423284598	12.304190143807848	14	1.054560958564488	-1.2865929292865714	-0.6478486066126079
Si	8.30907082455907	2.431347568549861	10.894447089754667	14	0.18987484234027557	2.072976032985674	0.016098975962107197
Si	9.868332578284225	4.030838495280976	12.375284096103341	14	-1.8335086827882543	-0.18304007306772593	-0.8944664578158915
Si	8.16981851799828	0.22062905195646149	13.70561840344031	14	-0.6114723514326209	-0.816462979060579	-1.9231932072340634
Si	9.735328667530718	1.2622251530386575	14.834708445813497	14	0.46559811998869943	0.8075451002576455	1.8840314165502279
Si	5.361943602100734	2.6992905887583403	13.67449122432685	14	-0.25958753488023856	1.9709944260146606	-0.797295131788343
Si	6.879795383612249	4.13494562542441	14.999101935504388	14	0.3894136982473917	-0.8726835393225328	-1.8407491724803233
Si	5.532913487378821	5.343788814282715	-0.15635749508309701	14	-0.29218246546588383	1.1272651321444433	2.408727677875191
Si	6.914612560249696	6.809111431041645	1.323315112046895	14	-0.2103678372945158	-0.6123136170933734	0.3425619886615254
Si	8.318008818561617	8.250358863955181	-0.01344799097631	14	-0.3192415491867182	-0.5736267095621692	-0.024439641620667564
Si	9.613181549492234	9.591927163754066	1.5408937660501933	14	-0.9180113547851476	-0.6052551616579709	-0.7736967558284279
Si	8.42186994887012	5.325716026409674	2.697666989847786	14	-0.3787945190541161	1.171663493033824	-0.49186838859731247
Si	9.592222363555985	6.946100539121057	4.30958910823749	14	-1.0727168187827134	-1.310690099678595	-0.12042877342201193
Si	5.232990488629118	7.896545501366263	2.8086949153473206	14	1.665462524616036	1.5821684824434548	-1.0480596616519613
Si	6.664496328079326	9.698756692070754	4.034151293058067	14	0.07290497690545886	-1.735207355972501	-0.25224934318600395
Si	5.5167430982292585	5.513217100595226	5.541949881315341	14	0.34451577159430585	-0.37557806629861085	0.03936953599370343
Si	6.8641825940885335	6.952102935093409	7.237593943527074	14	-0.9946817154319632	0.50210627287161	-3.3104744775156143
Si	8.044243802259736	8.323060015172231	5.5074935044357956	14	-0.11308029730649669	-0.5655989474210709	0.2877167126353186
Si	9.564243982329662	9.523030809983972	6.83289141508512	14	0.35655831469281546	0.09394921684033887	-0.44235995588413707
Si	8.209818091158304	5.416096365763875	8.045752601247322	14	0.8757387837744649	0.6441837530892688	1.4273375485062654
Si	8.329456010880476	8.145382534394985	10.743140791282185	14	0.4479392544288584	0.7669833427269893	0.6439423262997069
Si	5.267184465684735	8.130655344277026	8.361124389630787	14	0.6786321935002088	-0.4963292563277693	1.115997520189426
Si	6.640585144123887	9.44391726306968	9.753204655535814	14	0.66712315475563	0.1634107123905234	-0.5945300529255051
Si	5.726285757624761	5.410913969241297	11.020891004909972	14	-0.9878544023648421	-1.7354241001509891	-2.5223926445314895
Si	6.629137951805028	7.002368901364617	12.11718106929216	14	-5.2359904212959	6.309274683022769	-4.7483214190179845
Si	9.754910254391346	9.770096644201178	12.256302175940988	14	-0.7572295975844755	-1.9720534642960295	-0.5908703416128064
Si	8.348447198137265	5.590969448422892	13.693679211451585	14	1.0248667490010335	-3.188560633660684	0.8959060196846425
Si	9.737067066364242	6.846552605918371	14.978634749238006	14	-0.8244683725853921	1.366632466344909	0.5785110383388545
Si	5.196139713356229	8.044867001841565	13.557182103042038	14	0.11023382660656077	-0.5652222804916691	1.0856520496483786
Si	6.829463817385061	9.19685142885247	14.752724900824994	14	0.3900135371185822	2.0345863452294792	0.7644227789386537
Si	5.2774836587739085	10.59352369167624	-0.2323058441212575	14	0.827956848283769	0.5461747609484161	0.056949725730747934
Si	6.336480148180331	12.29754814826467	1.1543952253932448	14	1.553020632760532	-0.2316439909292732	0.5093835293697572
Si	7.945351868616871	13.69781200867845	-0.0852307428096135	14	0.6125406456931425	-1.326588272315199	0.25585608972910767
Si	9.37736610772594	15.16721822269726	1.015716918447297	14	0.7551482878278156	-1.4508636764066845	1.024575699878793
Si	8.075780981098083	10.938218660383658	2.613781046135803	14	-1.2159291848886857	0.5932928370454499	-0.2722671978770808
Si	9.545744794742738	12.184732623964624	3.9284369639930743	14	0.15665410471970628	0.20178651617798957	-0.0909546504739624
Si	5.26523286699427	13.776072756164977	2.7717457401404593	14	-0.3787024734836548	-0.6001096085807585	-1.1088143661459964
Si	6.9506105360948185	14.941865973910094	3.8982281842633633	14	0.3152992733993352	0.2868831602905266	0.9468563282613568
Si	5.367634398282172	10.935971861891273	5.480712322406145	14	0.16901417932525412	-0.063982727223481	0.2674710580128766
Si	6.746971872737696	12.1800914270789	6.892177375303852	14	1.5128131735429922	-1.2406591042999977	-0.8692953367316418
Si	8.268349651883243	13.31470826574357	5.5258614921107565	14	-0.45762872193836845	1.8204297271351928	-0.8375887230341077
Si	9.51228881719192	14.957068763708921	6.7505962703057	14	1.0543483281545114	-0.43290497317982457	-0.4131131186463886
Si	8.135476941041702	10.716244809329563	8.248325265319739	14	-0.4830592675494211	0.44330972218939974	0.38553621431407636
Si	9.773885041659138	12.125397463778906	9.369953312699975	14	-0.1967376366608148	-0.8475576696919179	0.0730759554092487
Si	5.450027942995564	13.393231413054025	8.180462110856359	14	-1.9339990486735819	1.5315814710484772	0.293661108135501
Si	6.688522311957733	14.948032369772402	9.361654918268252	14	0.6488184275393677	0.5437435237576841	-0.5665669685741066
Si	5.376769192152666	10.882737497611881	11.083817762685706	14	0.7522478239161566	1.087949075141399	0.22079675469410048
Si	6.960237329635177	12.442770050819822	12.304452543631776	14	-1.1949476799236174	-0.17465569861872304	-0.5612278112662871
Si	8.163750522069945	13.86884749391252	10.747289988498046	14	0.46858677281283956	-0.6908739972610299	1.5225561200431614
Si	9.50969761893063	15.314621323788813	12.236376189311455	14	-0.807590608821812	-0.1800305942904926	-0.9018568429481252
Si	8.297836832097152	10.986303428118463	13.484349751913022	14	-0.7292729409963774	-0.8231740781672294	1.5121847954027479
Si	9.60758915324477	12.37987609302208	14.938897575901908	14	-1.525330856904665	1.4309031573642468	-0.8855544925551941
Si	5.39658037885923	13.63367165171705	13.77339955795871	14	0.864750136746684	-0.15875546909786328	-1.2871853119523333
Si	6.918335357751674	15.10698106311679	14.88666361095124	14	-1.6725214942725024	0.3296265006853284	0.043216680884241
Si	11.05347778304403	-0.1658858886894825	-0.0808683457368105	14	0.20576350188719467	1.508120392112658	-0.6521292398601224
Si	12.413528870440846	1.4503002268390515	1.1307300412727384	14	-0.13222294774659518	-1.0039793464906828	0.531032750386468
Si	13.849692306765776	2.767793342792544	-0.227894247081468	14	-0.23266806217828814	-0.4383256345262927	0.8517249171948138
Si	14.760990495278724	4.252681146423105	1.366479883083051	14	3.1751520623055804	-2.5319687262963813	-2.470713684707045
Si	13.53523891776606	-0.0231731844506415	2.6813818007752546	14	0.5404201130208607	-0.26462073065496045	-0.34714241278936914
Si	15.064767491442371	1.3396659010754084	4.066278871500252	14	-0.5722282853785408	-0.721244664634215	-0.4890774537722917
Si	10.998882219678013	2.6624070135074605	2.566581877806754	14	0.1851460654354592	0.3646285000716962	0.9578040947145473
Si	12.450674845515653	4.1772903970107915	4.11657763774945	14	-1.5132312352680484	-1.303025891829766	0.05793445906836464
Si	11.025515801806703	-0.07540714940130899	5.353366407856088	14	-0.9396559478122821	-1.1311927526315013	0.2558211226967536
Si	12.113605871691142	1.472456611971972	6.6988543050248985	14	-10.77229699973797	8.673735126379906	-7.242206161980737
Si	13.595492477335526	2.5259591050649006	5.422607161395089	14	1.0352802397686975	1.7080158603276787	-0.5012102426675386
Si	15.056895496724533	3.868527804192513	6.806602232725333	14	-0.3079006607300771	1.2654993241295447	-0.4646645516469537
Si	13.895513876019205	-0.110109526115787	8.00814742648064	14	15.194527959217426	-13.016589636863092	5.791210073650064
Si	14.918364789679543	1.3287763083823965	9.438866066459065	14	2.0117019652169694	0.13397747001706425	0.4967254636576042
Si	10.738909594121345	2.8864472631749862	7.937791473689946	14	0.9434015340426738	-0.5801945981024874	1.848698773019689
Si	12.225273396761501	4.128008430079314	9.509287619205741	14	0.07646107267375567	-0.679798189762896	0.23731379238126374
Si	10.979858232443231	0.043066371102183	10.81808874099162	14	1.0834049035985691	0.3446885498718198	-0.005498308727136667
Si	12.478308826973072	1.317115916206596	12.339450120148173	14	0.7617673413640049	-1.2897911271943034	-1.6726307662486086
Si	13.750390373398025	2.7029969862713235	10.849822719697913	14	-0.9517974784656174	0.8644308054659217	0.21835523308208785
Si	15.127038249658286	4.294107518625738	12.105897876863256	14	-1.0523040423144618	-1.9007484862312989	0.025216886758948332
Si	13.800311939900325	-0.23386384307583	13.606464069973516	14	0.48290577256180833	1.665410845399101	0.4042304639863411
Si	15.33292371150779	1.3622486859222118	14.94763877003651	14	-1.3905450313749466	0.21613662630133207	-1.817826997219607
Si	11.26631684022763	2.5885906630387154	13.654106038005443	14	-1.494922137172742	1.5441932568648677	0.8715915908930659
Si	12.328314527620229	4.097652050448644	15.097042669785516	14	0.13725948595823326	-0.2404245727081109	-0.7117014930174214
Si	10.873684703686365	5.431922355144532	-0.050413566172166996	14	0.4833834839302917	-0.9608832504459567	0.8937558043054026
Si	12.382696891129306	6.708973098235122	1.3202483141047365	14	-1.0596473762193368	1.401598213146263	-0.46890121899349374
Si	13.728971987769901	8.197206499620764	-0.26922221935012797	14	-0.31002105128760316	-1.6485983877106527	1.1216902044787662
Si	14.835971244966151	9.360211719236647	1.407086255835909	14	1.401393038941715	-0.6795914728951561	-1.1394768539730185
Si	13.72041119351425	5.4568011384507065	2.713345379327484	14	-1.5398429466631771	2.3047946019661847	2.1422225841310945
Si	15.049531901665551	6.772441055647707	4.150033615300271	14	0.027457862155989398	-0.23268297458914503	0.4195254553148379
Si	10.86105671215983	8.04717940028993	2.796099723798777	14	1.7770952896272891	0.7280272404687657	-0.12352926932757848
Si	12.274260163891059	9.369592512942072	4.496122583072307	14	1.3890859291057625	-1.522547378285073	-1.9303809892670696
Si	10.852987917574044	5.343920014194679	5.618947829649215	14	1.8378507654529201	1.9867581298430206	-1.7328473383991367
Si	12.060420707378736	7.148476403325526	7.391885039996737	14	1.1003119779627988	0.38590799614336985	-2.507725774232705
Si	13.766937962294483	7.929230679434294	5.934828017691539	14	0.06699374866390642	1.141849469962451	-1.2472017960081787
Si	15.140699440491536	9.624776341712053	7.05020766926449	14	-1.0559223588315063	-0.6647919335618517	-0.3759904715919626
Si	13.750603573254965	5.48645231855457	8.294491234342072	14	40.92515704238476	-38.23123182086693	15.12911569743594
Si	14.98258714658592	6.6351731477553715	9.602685556535114	14	0.5544670898269577	1.4315405343731116	1.5062838515824764
Si	9.820100210648457	6.856408999304667	9.172579445139132	14	-8.185364212349592	0.667211600778643	6.242842206650251
Si	12.254973776832353	9.37000251266696	9.52165321090835	14	-0.8368778124130868	0.9244761420021278	-0.19679060143040986
Si	10.815349942829371	5.5507402754169295	10.821335938812728	14	0.03946029601150466	-1.4803311144809015	-0.12194855377675144
Si	12.152818245379382	6.631401150286407	12.268241367929711	14	1.0375757225985256	0.7524694531947533	0.5567057512292106
Si	13.483529752463248	7.90938669274974	10.808183147638337	14	0.6242412317840723	0.3614907231389875	1.1262338618005319
Si	14.819226856201745	9.471485644571114	12.095861083598011	14	0.5638169143236762	-0.9650070462689421	-0.3088069753554292
Si	13.681789219429847	5.292998048363652	13.608399268674985	14	-1.437591116523016	0.07873572955049067	-0.9251572278014351
Si	15.021143520714341	6.569819191608304	14.82380245313149	14	0.7642754546038094	1.7617781867930389	1.1677039908407962
Si	10.969575439343053	8.219658084555604	13.571548493402096	14	0.5793255645042774	0.38078506879297475	0.10400892351595024
Si	12.406017675480907	9.62781033967622	14.926417184276334	14	-0.9922427649252707	-0.3411566224935324	-0.250827007722898
Si	11.02502380213684	10.715539609802759	0.13357791036834749	14	9.50792870483876	-15.487285066722363	12.361929915146877
Si	12.509206406240594	12.132826658793867	1.36382308486578	14	-0.9826671973814433	-0.03232085075851747	0.2077262836885957
Si	13.759836767059431	13.484923751527866	-0.07701434832286799	14	-0.3070789354697578	0.03427849034927822	-0.7243492743082938
Si	14.9381923763751	14.971681153903914	1.2265551769734448	14	0.46274830685184737	0.5585039822901222	0.824190693210816
Si	13.688037615237132	10.62015727380493	2.821765706576734	14	-1.1491611792718883	1.1142183153078837	1.3016639773416834
Si	15.084463878225966	12.21503980362831	3.9939385200411013	14	-0.41794731086933107	-0.05793831572634486	0.5251230648081078
Si	10.769380773674984	13.555197704373583	2.332668834763938	14	-0.106210046780529	0.15309543784608928	0.44035475084495357
Si	12.048137115621106	14.820210855541475	3.8277574315496996	14	1.0123233545861592	0.8413669623020653	0.3718486780317361
Si	10.986385428063441	10.93962905943727	5.3285860244838865	14	-1.1053886254174312	0.6122665658660146	1.8452753462859122
Si	12.246806582312592	12.248462981201138	6.945477339539227	14	0.14825970295995478	0.27006401772824595	-2.005531055338082
Si	13.5139517320499	13.609924467651567	5.279189257629441	14	0.4229180287847733	-0.5768665593760879	0.28892898879376844
Si	15.077329883012924	14.996592737188077	6.522472423378296	14	-0.030857634720821203	-0.2807860411343274	-0.8754719030422337
Si	13.552098106453434	10.936709861396071	8.292310035805668	14	0.6380532095639078	-0.5504589937433789	-0.2010020719448124
Si	14.953017966427034	12.42507446269368	9.497004027448112	14	0.365301615444511	-0.7906459963199082	-0.8902236198165832
Si	10.989435826016603	13.685364417030867	8.183086109095639	14	-0.5597100877958036	0.7300239608603927	-0.40217615083554276
Si	12.394980482886936	14.985325944748169	9.490558831772882	14	0.4014073903448184	0.5128331813777999	0.6575442447748864
Si	11.125768934536195	11.078487766262167	11.03835699319018	14	-0.5521554090336126	-1.0258843924867482	-1.9501396765418755
Si	12.347322114866014	12.500350412183023	12.20800420834924	14	0.11089614333703089	2.2302086364024136	0.4443404783122471
Si	13.917096261537282	13.822714324868178	10.989189826181672	14	-0.9969466021084816	-0.07351869974537821	-0.42593059288839086
Si	15.358360094439814	15.118083855666741	12.234112990830075	14	-0.15756967532421098	0.7782113596600759	-0.3209847585937787
Si	13.53100772060522	10.914930676010048	13.301489874613198	14	1.4220084185091946	0.9128007527433355	2.0560000529988645
Si	15.268881754480365	12.468960833245635	14.808189663607775	14	-0.18838797213363392	0.3390033217879084	-0.37928688572292446
Si	10.874717902993082	14.010854998624556	13.506030537365074	14	0.7013862184729874	-2.2052671150232532	0.4835536911024856
Si	12.407821674270412	14.915478391616334	14.97176315384889	14	0.05084515036912036	-0.07587074689224965	0.3669494368441939
H	4.039914249191086	13.228001523924362	-0.5371307995817164	1	-0.025233084722465264	4.807349112068477	4.595632730033542
H	1.7670118943234487	12.76968415145832	-1.2529312792749077	1	0.31859928707774526	0.962627745405677	0.3779838495466734
H	13.137152144884892	6.00104789325757	8.052266676876334	1	-41.559444096875716	35.128211089875975	-17.255344720923055
H	10.792398158230169	6.633908708603819	8.411388715903096	1	5.396545407007334	-3.459236317344594	-3.784237656669507
H	12.938559758141682	0.7538517341605503	7.146598604585542	1	5.635487223277316	-3.7053345481626754	-2.6586637976046577
H	12.035013844426906	9.628697579080878	1.056374131166041	1	0.009532887195513033	-0.06616045342964641	-0.09104129672325138
H	7.5408904200131515	6.434712802265576	12.740392131113458	1	6.189799018342936	-3.5831759350812677	4.170132283065213
H	12.554998455513829	10.147634230870986	12.511763164524991	1	-1.2498646897882562	-1.0861613856122998	-0.8156278840525948
H	9.957543598423044	4.496198023021686	4.5184757680731735	1	0.11639522339576362	-0.0261383709056894	-0.2779017751861853
H	13.316102264808189	10.09408334680398	10.421851886869144	1	0.3220934192078265	0.29375212526383426	0.21838351524060945
H	10.638590861435873	11.494475127131926	15.91550052059494	1	-7.794419420884052	15.312801632160088	-11.98344778538916
H	5.6569400441561895	7.820902192123419	11.063916376039666	1	0.030630606121052124	0.4621988616449316	-0.17107363468669273
H	-1.0075628439187343	17.208852852747054	17.032161011308435	1	-3.9080800866250804e-05	-0.06860634592070328	0.09653009236070352
H	10.729881400179323	11.18664569368749	8.467220838439376	1	-0.17062446258726285	-0.005837437518864198	0.04907108769821818
H	13.022219382005527	0.5437957551094876	7.863898043272921	1	-11.573270869018382	6.865276208504791	5.185491855923935
H	0.16889528667015674	11.225512027607927	2.3843960400546442	1	0.14245954646823275	0.003449137786978648	-0.09420401337756554
H	10.805803509235089	7.771574305222754	8.20287269581871	1	-0.5676889989358191	3.461031205968589	-0.7020889015569838
H	7.16274931374831	14.778015323854953	11.61370796712591	1	-0.0636911638801762	0.08515783641915654	0.2975969561595837
