70
config_type=vacancy dft_energy=-6839.368001891977 dft_virial="-18.856891228955593 7.86275795940636 -3.901793045178021 7.862757959406361 -19.674646459231 -6.087601887896797 -3.901793045178021 -6.087601887896797 -7.410684879861925" pbc="T T T" Lattice="10.880239603362973 -0.10021392150755701 0.07883277538786651 -0.09525218988894181 10.869630637731065 -0.023285319438238004 0.07800582011809731 -0.026386401699872504 10.900151815779784" Properties=species:S:1:pos:R:3:Z:I:1:dft_force:R:3
Si	7.497437619496969	9.512728700023548	11.494884988609323	14	0.832576353212479	0.44779912918891035	0.5308728276355548
Si	0.7340326999231211	0.09203468103011613	2.0319041766566275	14	-0.26196297908552335	-0.612430345274908	-0.36625729529201
Si	3.555469156094775	2.731013249818548	1.9263553055600198	14	0.15253467977576501	-0.17727616916101796	-0.5025878408980738
Si	4.8696283873456165	4.115402745453578	3.2944233156075002	14	0.3351101541121402	0.6582420427587744	-0.4146372698801724
Si	3.3557039653945155	-0.041841760452243186	4.625967105207161	14	0.41375898030280983	-1.3984663497557905	0.5228697481055299
Si	4.581598778785965	1.217139968522288	6.059067530528714	14	2.473641402335098	0.5632139901261015	0.21398409692730408
Si	2.178908533046573	1.4856936923798356	3.4719085903817146	14	-0.44804518396804854	-0.20598384561313132	-2.389305805397324
Si	1.7879306100939298	3.9319111639831457	5.377270113079988	14	1.053296488968039	0.4920884752127171	2.1396172831101876
Si	1.009179215859	0.1371342100056343	7.311060399374656	14	-3.1587126719990852	-2.631032385839559	-1.9155637093070559
Si	2.237982517982151	1.1276568797390256	8.743311019346619	14	1.4124248805388746	2.4714184246752975	0.5947054023083392
Si	3.266230669502605	2.733873862192526	7.1806811082041895	14	-0.08146032985825159	0.220337555283922	0.45847744380454936
Si	4.592311113826594	3.946169613792429	8.871035348861511	14	0.6474809385518266	0.38712952828097213	-1.9049478725506965
Si	3.711516703599262	-0.03550575974715627	10.054086262585642	14	-0.9704382491472231	0.3976263228610087	2.0025714560040595
Si	5.195828510199352	1.430017840743585	11.33513681627262	14	-1.8937131707437775	1.0167495123947943	-0.5550340185500504
Si	0.8663770979583292	2.5172094053149174	10.004013032902078	14	-0.43145744088458116	1.0938824148887045	0.8348353263467612
Si	2.118270949791707	4.059429842779634	11.529575762176142	14	0.9105343234036248	-1.2733383671401441	-1.2011679550246517
Si	0.9508951908258589	5.43190900633191	2.064551500227884	14	-2.5181948008752837	-0.6963327109662363	-1.0589164109768188
Si	2.2723316284506696	6.828742002578889	3.0634144490965136	14	0.839624781337133	1.4057392353748936	-0.22698823341554905
Si	3.35634050333243	8.253046235267792	1.635444410744646	14	0.8473902907355763	1.295441388245861	1.3237245752096178
Si	4.837189978789881	9.606343300858539	3.3441505297966083	14	-0.4392599741996345	-0.39475851198691553	-1.2966652343782514
Si	3.341793707277766	5.542914694109956	4.507257676231792	14	1.1398360373862433	-2.0954076413513056	0.46834200358636147
Si	4.848658542662733	6.335803759160821	6.052525879105225	14	0.6050708134065161	1.6832887691322185	0.35272248266568657
Si	0.8062063091912673	7.833561205587935	4.417391576586742	14	-0.17348635991911968	1.9776237639721304	1.0104551894605398
Si	2.011599160486676	9.28752919428269	5.953014869576972	14	0.3066025096539343	0.09744926251265644	0.17157397178199355
Si	0.7916464559481335	5.264728029458635	7.0795412144142995	14	-0.7717000354368009	-1.0119119777349357	0.6433751404660822
Si	2.135113634819019	6.476191385293574	8.607696883698706	14	-0.37580869444582815	1.7668031550307366	-0.4048629558950975
Si	3.540662304369749	7.912707353499082	7.288360477219491	14	-0.005552301938859776	0.6524763390783423	0.47318442334632826
Si	4.831740778801717	9.552888259361234	8.74796264273907	14	0.07888253966427113	-0.8000559846811182	-2.8542670625982236
Si	3.4988096629271146	5.475599447051702	10.104703541788792	14	-0.29944995176381434	-0.336912756052096	1.4142678488323566
Si	4.882961952971606	6.929754588781196	11.384247078306519	14	-0.3700327063441155	-1.2027131893220604	-0.24979599448951864
Si	0.7952328303812379	7.932366038839766	10.083025344631407	14	-0.32665018916672495	0.6606506542226892	-1.9717552160788925
Si	1.929224622726311	9.48796356589204	11.289844693767167	14	0.8655356094219891	1.226544764534513	0.8088352809072957
Si	6.263548542464736	0.170165632537718	1.8295971866008667	14	0.06831606813005857	-1.5143092997287864	1.522166340476627
Si	7.640170099059133	1.167095029413742	3.3974793518053694	14	-1.5680903952629839	2.0611569189394854	-0.5582864667800377
Si	8.979722297587085	2.737557077440117	2.3590650909619497	14	-0.43885785332756333	-2.1411092955274698	-2.4725962480224575
Si	11.194749190139866	2.535396980754644	4.286125484699352	14	-0.18180954206150304	0.174134278459797	-0.19293085812380356
Si	8.729303920415385	-0.15988636091467898	4.725621743808585	14	-0.11783349971185446	-3.6817927365198035	0.584371872916132
Si	10.100009482533812	1.0956428298085656	5.804276083318589	14	2.4216698507252206	1.118528002045516	2.2460672140170868
Si	6.175660606872897	2.6818823139029053	4.677599580813856	14	-0.3831270886290976	-0.5360168380495751	0.5854936461673127
Si	7.558825991088862	4.054040488238626	6.082792441978777	14	0.3874951394574972	-0.48620912867713445	-0.9662794862918834
Si	6.418737579827319	0.00539370693716569	7.432572771474928	14	-1.6301748754285994	-0.10991629509952246	0.07467749691316894
Si	7.752358550492756	1.3830837767880264	8.749666605834411	14	-0.7002729298693633	0.29902211983854177	0.2735044137571361
Si	9.058288488710355	2.5672086442638182	7.25501241786701	14	-0.11384622958136881	0.8154005983422938	-0.6195443365852258
Si	10.32880080320297	3.80762631553107	8.72675232816853	14	0.3334726171337379	0.5944534339869646	0.6194443205882719
Si	8.93931029927231	-0.00398897107759722	10.24452100402502	14	-0.8573597516144504	0.11963558743074625	-0.5045750482000163
Si	10.20559861329487	1.3255701258746175	11.544791739139896	14	1.4569787933001246	0.5425063078776289	1.5774178511434171
Si	6.356796453923528	3.011199840503863	9.903102728009452	14	0.8511289349816035	-1.7683036520955748	1.6193705766522732
Si	7.5950041960422245	3.9673102900244634	11.912994661103669	14	-1.34143974797597	-0.3395329694838589	-0.23136348333884504
Si	6.26519592441004	5.757191861695625	1.8770383047086787	14	-0.4251394637813813	-0.5420036567875399	1.3313787557476988
Si	7.604224747300152	7.039426267137219	3.52693593499062	14	0.4432976379943951	-0.1744674937092882	-3.2762067858086805
Si	9.102790651313368	8.320789105248437	1.7114231023527697	14	-0.8711277634933113	-0.7325050774943356	1.0682490090678922
Si	10.126592830159774	9.220169335163831	3.5824072240075067	14	0.6427267077043409	1.2355757719715332	-1.3174626482023972
Si	8.856149065906626	5.33392786405273	4.165411777293832	14	-0.8092767396907652	0.8159978661081643	3.962244533962512
Si	10.353660601950887	6.440114373550853	5.771826793772462	14	-0.7771842030846768	-0.2617529197808673	0.2008228659039981
Si	6.12645785642067	8.069531803717537	4.744031291452302	14	-1.8291378037440025	0.5524724263195868	1.11758929149313
Si	7.465633572681069	9.206361358356766	6.2698464597034524	14	0.6930090431188808	0.6057981791015861	-0.5524927380516159
Si	6.3521927068888	5.3205442458709395	7.670676043721302	14	-1.0406697907407916	-0.35895844150917366	-1.08810874078178
Si	7.9698227601641545	6.711897575356657	8.593758335006937	14	-1.0320398757337146	-0.5569129823180147	1.5212751953726635
Si	9.330179412321037	7.998811894765722	7.249403267320089	14	-0.6883103481463102	0.792000711713094	0.07647598508461252
Si	10.220348883869857	9.64019079767	8.874765352367785	14	1.8592855562859307	-1.6792629324219308	-1.157407485365199
Si	8.74182902845527	5.033497190743658	10.375592326184398	14	2.811813742883534	1.972147566750747	-2.390890634716664
Si	10.393256525986283	6.578781715102679	11.537255565194604	14	-0.8895934419026148	-1.099200746243431	0.6093820428073405
Si	6.608728376858715	7.881964203246372	10.244379551149926	14	3.0216617026823163	-2.8338177764344255	0.3237399550548493
H	9.496598719866892	4.45081036237677	3.1452569064267237	1	-0.9064339246390527	1.6550765446752977	-0.18092945271041636
H	5.729620520142096	8.67212322780796	9.661455517192499	1	-3.9563322772788307	3.65342830262793	-2.940801725916319
H	9.909147118172042	3.531540770124387	3.2521963680953907	1	0.9407193569726954	-1.9016540295250548	-0.2535464658200186
H	12.07449249669536	1.8453485082918915	5.352573529187947	1	0.601821193392381	-0.5223197886775504	1.0654377625108424
H	7.345039556169858	7.09916616868477	11.12000657904024	1	2.0921796186218597	-2.27192404889022	2.2900449420760913
H	0.07616584464286083	4.589991286675083	3.096727689279742	1	1.4433509066612116	0.8527376755804201	-0.7442452586071958
H	10.273823511149866	4.054040488238626	6.082792441978777	1	0.10075493262277084	-0.02598744702339671	0.12685242295386986
