224
config_type=interstitial dft_energy=-23331.494310709513 dft_virial="-55.59813057031915 -8.349098352818007 -11.809264830778433 -8.349098352818006 -52.393385839290055 -12.379972796578134 -11.809264830778432 -12.379972796578134 -53.375163179057374" pbc="T T T" Lattice="16.3199774331 0.0 0.0 0.0 16.3199774331 0.0 0.0 0.0 16.3199774331" Properties=species:S:1:pos:R:3:Z:I:1:dft_force:R:3
Si	-4.972778723752736	-1.8434720108881097	2.3929330111057205	14	5.358797981360111	3.5694722008354107	-0.021619396194997136
Si	0.0287884401919884	0.0908696343475008	-0.11376656268614009	14	-0.6872952757659158	-0.38806232529112183	0.1821993216280375
Si	1.311962985846909	1.2227253492427181	1.4290751439068348	14	0.8794928546524132	0.517506679518233	0.004318942716784744
Si	2.7747715231079613	2.5978629677331573	0.13292621619259948	14	-0.8528333206983296	-0.0133070126949584	-0.8902776130283062
Si	4.14664514611178	4.0232334767626785	1.2791108712740786	14	0.22779838870192773	0.9821141526270795	0.2706489441885796
Si	2.798892449754083	-0.023288607797033702	2.8095657149953306	14	-1.1023930306089267	-0.1496923228443413	0.06287843748847739
Si	4.181292458202252	1.4372840925556838	3.9788920980769453	14	-0.47506030178790837	-0.6778073829135053	1.3412165760341814
Si	0.1400743663082973	2.768684171525415	2.705819618453114	14	-0.35571576347940287	-0.3029718518313532	0.32869936010688294
Si	1.6211612782944216	4.099023451961995	3.9626700405084443	14	-1.2687438019330393	-0.45550807427031026	0.8920835574051782
Si	-0.0113587042934376	0.0034761551932503	5.475842028128043	14	-0.4787318401850799	0.4739097321571421	0.5809597590457636
Si	1.3916697556301694	1.4308213814921764	6.832587032051378	14	-1.3793524956952776	0.15618384955665118	-1.4442505364127314
Si	2.7938822166821216	2.706570337415036	5.495442321025196	14	0.030877432231786336	-0.1581499737949684	-1.2641798328792446
Si	4.001805346393018	4.160549766884782	6.7546101798760265	14	1.1425446968410191	0.343493500119015	0.605919792383229
Si	2.7196589593163822	0.19081317614780519	8.07301955680901	14	1.0291173003163023	-1.4023397199205938	1.3977243287603958
Si	4.129770289445955	1.4531307906432238	9.529789702419814	14	-1.0909109884702095	0.13913639284194138	0.03161688212186093
Si	-0.0611019955095264	2.842597349319925	7.977874088374038	14	-0.14486481549523125	-0.7574859367848943	0.7069326068696107
Si	1.5032984012725734	4.006619739735783	9.394382849657385	14	-0.5927955852765332	1.414706479399974	-0.008821462353428058
Si	0.0675973465279002	-0.0866917201246272	10.81661992301975	14	-0.6653876586645301	0.3837778353856271	-0.9585880247266605
Si	1.2503224310820904	1.270836642715497	12.20091304885016	14	1.232346720799959	0.4072913648699773	-0.1960182413922374
Si	2.659976801843536	2.7664809745719463	10.965392837299891	14	0.6175926105367013	-0.7534834971330198	-0.1750074258265193
Si	4.082328115047933	4.017945804074354	12.412566836180032	14	-0.19354792340063912	0.45212141434261127	-1.3470038769993027
Si	2.6463822606417637	-0.041452742680074005	13.552533579859501	14	-0.08228616888708315	-0.11806412785907174	0.6531782508307429
Si	4.021421959267604	1.1535449649038072	15.02701090098522	14	0.04376844008594478	0.7393015372976149	-0.2816347630005083
Si	0.1421633234197341	2.755954589127597	13.496751896993164	14	-0.8205746906885598	0.6839641517131319	1.2019380010680358
Si	1.406423015229692	4.138599397237262	15.058051498062976	14	0.2973146487954314	-1.3528893941876536	-0.05471929186551947
Si	0.0969243459751809	5.556250556940927	0.0015503978561445001	14	-1.4434293253734762	-0.8972723050517691	-0.15623064367347786
Si	1.4238364311508096	6.862109871227856	1.2966874869695273	14	0.07070282519875203	1.1941223551158497	-0.2861195420104426
Si	2.753979871858192	8.351617891569461	-0.0915713933771241	14	-0.5621845195559142	-0.1592282953662385	0.2948908678101278
Si	4.0490027211295425	9.620496136992985	1.378532173796524	14	0.6245266244746087	-0.5881447128629174	0.30430368438718997
Si	2.7153831252289105	5.473589871242275	2.535161614435187	14	0.9886673858670729	-0.6278598054116487	0.08195269652705994
Si	4.058615187837639	6.622793722148877	4.009671575515772	14	-0.10154143374020413	1.267173113692961	0.3303728925597673
Si	0.0334233137829888	8.092048650496006	2.74923075842516	14	-0.42847187338682524	-0.13303001770658968	-0.5879418526531576
Si	1.3618694768373287	9.375076316354027	4.159603208193662	14	0.613542862546936	-0.7846797464245046	-0.08105898031777647
Si	0.1111227263419779	5.362238665216234	5.356330833385452	14	-0.04637014155940262	0.32565594273942366	-0.05406211734568963
Si	1.3050106754604083	6.901408376886761	6.755197699063618	14	0.38273293818351894	0.009593565281068528	0.27463441454534115
Si	2.901822547424645	8.158683118355352	5.536225944630512	14	-0.3869163836499319	-0.5064815227949061	-0.6868031662076394
Si	4.18697181034897	9.610589910691093	6.906304370116691	14	0.5610889715789991	-1.1289926578090506	-0.6479905316262801
Si	2.792397098735709	5.683105741528413	8.11892765332832	14	-0.5961668185723114	-1.4393597798727458	-0.1510953750175461
Si	4.273124971218306	6.78605877638961	9.480878730052815	14	-1.0382292975709073	2.153832410204223	-0.6704370524027689
Si	0.061983274290913805	8.332066558604607	8.207969450203315	14	0.1468931604822961	-0.7690870210999344	-0.5274792257234915
Si	1.4235753115118799	9.489528318092358	9.72486239267766	14	0.2657309339322004	0.3377334528702873	-0.8525001054488384
Si	0.039983944711094996	5.43313264718562	10.733404358088373	14	0.5259715295637565	-0.339395929570295	0.053156316941401466
Si	1.488871541221713	6.641398496422612	12.145996324787777	14	-0.056802915616967486	0.5078146409034028	0.5757206177348978
Si	2.8609899638870284	8.122909727821996	10.888966382980682	14	0.21590342704879464	-0.7049993927793914	0.23784806806679049
Si	4.214373052459146	9.49907550489072	12.254491534763027	14	-0.782259050765585	-0.5224097773637554	0.17959916281777175
Si	2.784710389364719	5.379472561385588	13.703428091205943	14	0.14627223854748034	1.1927658399489396	-0.0582062249007043
Si	4.141569633130087	7.017443416436103	14.911808180284968	14	-0.06740178307821391	-0.3982307897217755	-0.43380383159974834
Si	0.1678346479220004	8.055948860413988	13.61876004828302	14	-0.1608882009609261	-0.054014809007798904	0.1695623389795097
Si	1.2733662392176275	9.72744094911209	14.93013551494234	14	0.4189580123706813	-1.183118795677212	0.24028907545773912
Si	-0.08603892102730319	10.883466550585728	0.14454604012496672	14	-0.558324004917712	-0.4946418399061562	-0.9444675143084073
Si	1.2673115275899474	12.155331351879509	1.4124450869025056	14	0.2309101974709029	0.7217082349234377	0.6022868205658597
Si	2.5329094575494193	13.535283363712715	0.024349406330185203	14	1.2854953244254002	-0.8222903892686946	0.08964775763973112
Si	3.917431063063891	14.836622044250674	1.412200287241009	14	0.8350315016826884	-0.08614076998304915	0.022395870001681854
Si	2.533170577188349	10.791079158336949	2.8190639418613945	14	0.7355022149660322	0.13186427855443453	-0.9732464103778887
Si	3.934762879097843	12.14054545232512	4.027492990872718	14	0.4315636275343033	1.1096360914063157	0.21934999373045314
Si	0.0551452037464449	13.742759236819714	2.668022550718054	14	-0.3723451584690567	-0.6265930218204117	0.24536469447024342
Si	1.3371936709584815	14.93024975478437	4.220525683951424	14	0.9285798832036162	0.188979840578332	-0.4597241727742891
Si	0.0698005434813687	10.729471243526996	5.381675758339056	14	-1.495356653971847	1.201334305538865	0.3972059471411645
Si	1.4036649390434979	12.063449878931157	6.724907820947784	14	0.09871656032495743	0.2101125265362251	0.8470452484016123
Si	2.771001608320915	13.551146381777688	5.542231696325894	14	-0.45573947374912366	-0.12707945155363895	-0.6750452444680702
Si	4.071524289987221	14.973187615410854	6.844288455870911	14	-0.24699426102215327	0.34652046241242535	-0.0017516940546168864
Si	2.7705446489527885	10.710507429749734	8.196251706406347	14	-1.1991756055120688	1.5965196210089252	0.7070652759041304
Si	4.061226384226935	12.297168275750582	9.418748575965003	14	-0.6043344488428257	-0.7451279190636027	0.9999347407115577
Si	0.0202530919944771	13.469024255334327	8.092848329390227	14	0.6064612671636521	0.08495523331992887	0.234731631308239
Si	1.4346402562115217	14.941657419010108	9.378960470983104	14	-0.5742160069015472	0.36598835767552257	-0.308523639549149
Si	0.12856878221796178	10.876383680379762	11.041558171980169	14	-0.883659073713181	-0.7366653830128671	-0.3479543678494719
Si	1.3603190789811843	12.282969895383786	12.288192288162378	14	1.08692706077664	0.05035432636350408	-0.08089262980356289
Si	2.6298174835471673	13.62053892582323	10.828060227200353	14	0.5510038109607183	-0.5655758074731896	-0.23760304172978036
Si	3.935236158443403	15.024693464189719	12.116718285272794	14	0.8374848503791738	-0.6277489907723502	0.622917369654728
Si	2.7940943763887516	10.834376058466963	13.545303829856637	14	-0.7533397723456235	0.30084529062105875	-0.20529864604531187
Si	3.9793327374676393	12.188248746362072	14.936092306705419	14	0.5266870681743537	1.157646341049441	0.30098104498196254
Si	-0.046479295729468795	13.623329641964288	13.49825333491701	14	0.33597173150492177	0.1108840591420262	1.2086526997221345
Si	1.3325098374351818	14.87871126605064	14.989491272866523	14	-0.5847940484097004	0.7629346231793521	-1.083440899073051
Si	5.3904885461529295	-0.15471338606578802	0.0965653064716527	14	0.9245265356664027	-0.4194164404492637	-0.2395987336792793
Si	6.756486977280833	1.4164924413059146	1.3657862714212727	14	-0.2568703907779061	-1.1721000667171855	0.03034521343051569
Si	8.094431367201237	2.692992116190697	0.0459080965193103	14	0.29269720075097744	0.6502572180765226	-0.8647863893316982
Si	9.643980584519216	4.028390589631538	1.259249458737996	14	-0.9201296884584175	0.05706311147536646	0.17239878236869705
Si	8.133272913492016	0.0234681275487978	2.675856139885942	14	-0.8382934630023603	0.12623792878235449	0.19458870683423507
Si	9.526476747000896	1.4597403815036294	4.067738055222742	14	0.058530441281574974	-1.7603409389190763	-0.43144509957904437
Si	5.518714608844796	2.7650121766029674	2.7147629660864525	14	0.27114825284175237	1.0716045586212175	0.014077315848874762
Si	6.934374731301623	4.177130863956811	4.010895573823255	14	-0.16647161327415969	-0.5121610944471132	0.2610630922234715
Si	5.39675541748724	-0.08677332001179269	5.40091701173268	14	-0.18905183152729615	1.1238843857589804	0.2980528131328459
Si	6.703855050059085	1.3628486754833147	6.7542511403724985	14	0.7967179186439698	0.39091625219648624	-0.38666235844430125
Si	8.262722974491366	2.7550406703913435	5.368946175941238	14	-1.652753808129076	0.3729707083934487	1.0993154175407094
Si	9.516113561330878	4.141080033807094	6.798706758900263	14	-0.24703179915982743	0.0038558866486260745	0.3767864857990805
Si	8.197834744217358	0.0875729989060146	8.077638110422578	14	-0.3958828563434163	0.022623669933046976	0.6163111716451395
Si	9.452269809612591	1.5178721411203318	9.53538745467937	14	1.082102638753914	-0.937363036087774	-0.6734128497003082
Si	5.452063821008016	2.781201594216603	8.18642707999162	14	0.17355526554169967	0.33139542114559023	-0.2213528847748485
Si	6.688726430978602	4.242541333508677	9.585848824902515	14	1.0260795393805475	-0.8300170749768035	-0.06280053299727689
Si	5.330741108770351	-0.0070502302510992	10.799989866015423	14	1.420158251120816	0.167970567675806	0.09461693289198132
Si	6.632863148225101	1.4133426856613263	12.3028965878296	14	1.1452096475053528	-1.1020199632269734	-1.0278111788136672
Si	8.145627136408873	2.753000673212206	10.935200879048656	14	-1.814230535097784	0.13154186194728795	-0.2321510128984064
Si	9.564600214284617	3.941568309687446	12.295617877894438	14	0.39960375996273456	1.4372373324309635	-0.2782797276682471
Si	8.19251443157417	-0.08411316369019739	13.447563485009802	14	-0.6771970025105022	0.7504416224287526	0.2890056077323089
Si	9.38124526782374	1.2707713628057646	14.947353091134257	14	-0.03036321116775672	0.2953783493788279	-0.010426089183732475
Si	5.352952598056801	2.648716017414697	13.710657841208805	14	0.09936139353925058	-0.11916738915194729	0.7779118258902787
Si	6.740982998719388	4.0874362679844936	14.952232764386755	14	-0.26608754624010494	-0.24752493716023188	0.8691151022486994
Si	5.4132222747172385	5.602289213279702	-0.0482092133373774	14	0.42357803152045537	-0.9159112759596506	0.2576967440278017
Si	6.911755242579346	6.741831637545909	1.4251420293454575	14	-1.0831452219612343	-0.18280096027295215	-0.154965145634901
Si	8.183603723895695	8.053843583325117	0.0967611462008499	14	0.004190130340245324	1.4169214866332815	-0.32434056525763594
Si	9.469471065827078	9.598235687774237	1.314884261807434	14	0.8807359840747047	0.18848721679899164	-0.44515860402511825
Si	8.350083813690748	5.455409416381802	2.6682347104246844	14	-0.09213324515271827	-0.4033984543047411	0.11461550429315712
Si	9.492922873398443	6.878935767961382	4.132920045090543	14	-0.08749754226049129	-0.24756427507163012	0.11561437871003465
Si	5.435907043349248	8.006352448994797	2.723314634261397	14	-0.6064340134472587	0.9007332699232204	-0.28903646099615066
Si	6.597938396518266	9.451600690537832	4.129460209874726	14	0.47495102981180204	-0.13089317207501458	-0.4543801303663614
Si	5.474503789978529	5.440248157346452	5.3728629705251825	14	0.28744957479255523	-0.09583049460309122	0.773750234819087
Si	6.7401180399154335	6.93698592769092	6.8447780551939035	14	-0.13289426334568585	-0.5637138130003383	-0.06431337136765203
Si	8.086450898236452	8.208671209232937	5.479742502734553	14	-0.3111405105439957	-0.10165944747439891	-0.803768917873944
Si	9.338699086655648	9.589243380208599	6.7784863068606525	14	1.5751640202197752	0.25235115895668175	0.058923049063961584
Si	8.097923842371921	5.53431650727084	8.170009182693924	14	-0.5573112465321055	-0.8893805543821066	-0.6328976291759467
Si	9.557957983469345	6.742386516778635	9.378731991299043	14	0.196636849332265	1.1698223245140662	0.9335457160189502
Si	5.636185806408251	8.413242126356847	8.323465930497363	14	-0.49325807102285246	-0.9070589603423809	-0.22805267101809037
Si	6.8912247109685065	9.729268786584598	9.790550301845887	14	-0.09910042634925555	-0.5511781319014243	-0.5921615507045848
Si	5.321895681001611	5.534642906819503	10.929668406698834	14	1.2303073200600176	-1.2535544830332006	1.8974878104642874
Si	6.894162306906465	6.740330199622065	12.33522646312457	14	0.31352546783896507	0.37188955860632644	-0.9276997938525297
Si	8.328427203637025	8.220029913526375	10.887611824853735	14	-1.3023234658563014	-1.7588291289908293	-0.7763761046825541
Si	9.507692452975398	9.606444636423086	12.117469004234717	14	1.2204247625409645	0.21595562048679365	1.5387270869542329
Si	8.214497441176555	5.330969588454415	13.726716699002978	14	0.04395484522165551	0.11479008234439517	-1.168830649192085
Si	9.45310212846168	6.8077969863305	15.008553006508382	14	0.9215731069851487	-0.5434445042089509	-0.4070165137112535
Si	5.696308603271791	8.295917808590291	13.586185373326552	14	-0.5504875330124325	-0.5010235804212957	0.5271984610225312
Si	6.990597053558653	9.57545299927763	15.068936923010854	14	-0.4015693699799878	-0.023720246352090135	-0.4119527788154058
Si	5.437996000460684	10.916824584458984	-0.093350270917332	14	0.18230756516201574	0.08029639047982055	0.9517350006063376
Si	6.792276687791621	12.37974736156207	1.286667020825604	14	0.30115767991745673	-0.9905327227768403	-0.040908085417280034
Si	8.273624719416675	13.572297072530985	-0.1611924171067287	14	0.004641616434463328	-1.7068015272849728	0.19163399260032088
Si	9.423791448991832	14.85186490317319	1.308878510112053	14	-19.051122690248672	-6.252312101765421	-21.027308692125775
Si	7.988563673592718	10.760593440491919	2.713408407959505	14	-0.5084553603491838	0.42825384365567665	0.3634355072031475
Si	9.28396188234503	12.010083552724922	4.322737702614929	14	-0.23852941097662977	-0.8371038125707277	-0.4248514999855247
Si	5.4525044603987105	13.56405548392727	2.7577987465775373	14	-0.3963058031685806	0.5329106857123042	-0.11311757833363885
Si	6.811828020756475	14.97837736823458	4.157367371285327	14	-0.21926180481797203	0.07083806533859181	-1.6357760283685423
Si	5.327738232922661	10.946086303996532	5.388220069289729	14	0.43914761689714404	-0.37215926755441	0.19896472808912707
Si	6.810522422561827	12.25977920745135	6.619790846301187	14	-0.6542660854916975	-0.14705411167533738	1.793433121273638
Si	8.128181080532888	13.671767334985729	5.426898415806177	14	0.7998328127393292	0.0286421132664496	0.3444926316464245
Si	9.540332407841598	14.941624779055239	6.785585497044051	14	0.47993666013810127	-0.3252653918412932	0.5338967046025811
Si	8.13541083053575	10.934874479499994	8.222608469960804	14	-0.8300044765607348	0.24937099078009817	-0.7960509739239234
Si	9.463089954650735	12.264185601358287	9.496382708614261	14	0.4989499839805963	0.06331295428758241	1.1046648592698096
Si	5.4209742639979615	13.613880375030522	8.165651748719286	14	1.126043600006841	0.12074707626064628	-0.7242374312268673
Si	6.872538336807607	14.968324262135793	9.456888363226158	14	-0.4697877361078807	0.4599712559955554	0.3081659987991164
Si	5.318974405041086	10.983426412363466	10.977975539900811	14	0.7394475760797994	1.0171534330405896	-0.7062497212965794
Si	6.663887425325424	12.332452066960943	12.385198234024724	14	0.7215660527992336	0.19557498283504388	-1.000214734080922
Si	8.191616832815347	13.68262011997874	10.920659779155763	14	-0.38083160579926945	-0.4096678375173902	0.017196837933810428
Si	9.683507569862185	15.102898796049136	12.079068097334634	14	-0.1103631532041642	-0.8165568244047643	0.26965495487181035
Si	8.166059748155114	10.93213272329123	13.513235074200596	14	-0.04086591929002961	-0.30004182020851244	0.4034622177166807
Si	9.672393665230242	12.219566783056193	14.72035852501727	14	0.5245797902539604	0.26154311758674315	1.0767987055889805
Si	5.3653721008833895	13.764725926444665	13.677968926410307	14	-1.310402135882739	0.08703165797648046	0.27582020831899345
Si	6.9647135693497555	14.900204676330032	14.938589263252682	14	-1.3349011700363018	1.3273254082104853	-0.19160596755233128
Si	10.757378404937597	-0.023500767503664	-0.0256876444796994	14	1.173728604826967	0.3559093677100101	-0.10628229484002516
Si	12.316132089527844	1.3552762059543566	1.3955865502141136	14	-0.9209282737708555	0.4582722696000015	-0.8974198864971455
Si	13.708960563555763	2.833654001686586	-0.039070025974841396	14	-1.8158500743389454	-1.2581382495979605	-0.7231825067140106
Si	15.040132162841433	3.975840262296956	1.29370093109927	14	0.9190310551551182	1.7253718496808064	0.785000877478991
Si	13.65149792301382	0.0508856896364058	2.712412889336086	14	0.5775885257499854	0.4271456972626928	0.9734541556877567
Si	15.019993310688987	1.4465375197602517	4.039308654534282	14	-0.09163445072060955	0.053851286709437486	0.35092065205732675
Si	10.82551431072079	2.7033389818832823	2.714975125793083	14	1.297057070829042	0.22149378134639258	-0.4212252130419879
Si	12.095747114271262	4.1524876980328305	4.086228589654444	14	0.0573101946966327	-0.47902880284955696	-0.1934347947665526
Si	10.821091596836421	0.0883073978905041	5.500321994277693	14	0.4784785863110452	0.35629631906069237	0.20888199553000225
Si	12.259632327654453	1.463575576200408	6.891616390426901	14	-0.8249273148850385	-0.006131314856957124	-1.4799840152626815
Si	13.492965662228684	2.7793737567440955	5.373825849193735	14	0.5390628265223545	-0.43483407350153164	-0.038647312509273835
Si	14.859910652047708	4.168987195217694	6.664099585032054	14	0.5840263163611041	-0.0912570124596118	-0.151215445635997
Si	13.585075614861102	0.15171051021809762	8.11386846032406	14	1.046348591061403	-1.177072070185288	0.8027016520555503
Si	15.003020534158562	1.4632818166066124	9.516766360428202	14	0.7310827420312296	-0.93441217851184	-0.46582180615155233
Si	10.933144561892084	2.8227848967161417	8.153868725012588	14	-0.7877424470818649	0.17944309672483877	0.46715672403377323
Si	12.33716854043911	4.1827775761486645	9.422600090639216	14	0.06891256456433291	-0.9827391883304075	0.8243850687730193
Si	11.045279126834915	0.1064225728412451	10.762111198393196	14	-0.43936358974403655	0.04749628568962748	-0.5957549275000236
Si	12.305230344602533	1.4998712060116224	12.162234702333711	14	0.07676292043834104	-0.7948862632138963	-0.48883936941964606
Si	13.741567878467098	2.775228482476088	10.867456652723858	14	-0.863342456583903	0.9843389300606036	-0.14412587982622072
Si	15.066129886892359	4.131157487527768	12.212173833278998	14	0.07804153111405068	0.22194038234050234	-0.20795279806730071
Si	13.604692227735688	0.1180260767961792	13.487857509292125	14	0.3741778423412582	0.02336003449673739	0.4046562390273576
Si	14.958107956262673	1.5023355226040205	14.879119265486466	14	0.6160964843509071	-0.5543357063450981	-0.3370947903087625
Si	10.852931872808398	2.512215726164248	13.59307240380332	14	-0.3307418461732086	0.3596390130874169	0.1370499408746412
Si	12.211423114317075	3.9552444507763833	14.74789032694691	14	0.5277584477612595	0.6589326416477662	1.197393315304142
Si	10.899737568086529	5.341642853695662	-0.1455578787258189	14	0.8462132387200124	0.7091239599339729	0.17767777581202507
Si	12.290966684326005	6.758298494775907	1.3639257939938993	14	-1.807581399629349	-1.1514443207961798	0.16065423037679263
Si	13.546642068006152	7.997245901587127	0.0135292612920399	14	0.3656890810162573	1.4096426874719423	-0.9436061940261576
Si	14.844553553283161	9.405219314672962	1.3707475445609352	14	1.5143123850551705	-0.6041081915746528	-0.6382079901041806
Si	13.54442255107525	5.252062497565376	2.6471982595134183	14	0.6181533686070256	0.5585626034914215	0.054264206223853265
Si	14.99189030954919	6.613768774628373	3.9635513192898313	14	0.06311472206739902	0.040814497183626654	0.07893781842865431
Si	10.71132342862139	8.120494371161898	2.6249541302721036	14	1.4851907606465133	0.2200351932982726	-0.03005699252412709
Si	12.310142657809898	9.389960135773014	3.8950726939805436	14	-0.7046360955976544	0.5818604172394115	0.22486347197897869
Si	10.84609380226393	5.523169962684033	5.4936471235075555	14	0.2479918498863707	0.5185788304367348	-0.1257813004774962
Si	12.268885754859019	6.999670961011456	6.702027212586578	14	-0.12537686561063688	-1.2181033115474027	0.6770409364175691
Si	13.689099151019683	8.091836490789374	5.255342813029429	14	-0.04398775536975341	-0.2717807447505088	0.02097302031751191
Si	14.919478569678525	9.387104139722222	6.732170210905514	14	0.6727510471909021	0.8992947364965976	0.021785746709210716
Si	13.649425285879815	5.487445532082977	8.121212450168954	14	-0.06908997083142314	1.501139326947392	-0.8014646932860272
Si	15.069377562401547	6.869568100914783	9.415876259936777	14	-0.329411299170032	-0.4928955451727116	0.193719673236025
Si	10.797427629558424	8.24064204502438	8.06169349247044	14	0.5134283922594142	0.11954894118145723	0.32512603793294115
Si	12.206249681470782	9.504428457488778	9.568288529184498	14	-0.04476242940271403	-0.01707445332057138	-0.13345142186856193
Si	10.932051123404067	5.4369188819501	10.745611701208333	14	-0.46497077029058326	-0.44638759236814907	1.1018171030172137
Si	12.242365791530233	6.757384576039653	12.189766504263352	14	0.20767229047687258	0.22088185828019738	-0.5564468409234717
Si	13.711947119426021	8.123970526355148	10.827635907787093	14	-0.4911945018929016	0.5079532234801588	0.8732021312656069
Si	15.105346792664099	9.441465984551877	12.404782206944445	14	-0.3196459840535775	-0.0657418774835263	-1.567536322066492
Si	13.61107333891203	5.41775922844364	13.535218083802981	14	0.03663516548572594	-0.15189833120902835	0.04542140369626798
Si	14.926137120471228	6.799865477298013	14.932795671263932	14	0.8267515141096836	-0.4444407514197329	-0.0387144183581297
Si	10.786623804497713	8.052211585581807	13.49825333491701	14	0.09540549089367074	0.8148025592448273	0.06930054435714325
Si	12.310877056794387	9.35650418203516	14.771831733841267	14	-0.10011601295071404	0.3128958041460608	0.6940829938111067
Si	11.14363963082421	10.88842782372539	-0.1190052754421652	14	-1.1355070673587098	-0.3592332926678975	-0.2019137858913369
Si	12.41971498629573	12.282186536466996	1.3617552369952972	14	0.750153658632896	-1.0095907838519058	-0.49679771171710035
Si	13.585353054477464	13.77252687565769	-0.1384586885424204	14	0.4203919178077279	-0.16174437903253544	0.4519761468920229
Si	14.968405862022957	15.089989693899552	1.353415728526983	14	0.18994554773657962	-0.45069522222152514	-0.9853329193773728
Si	13.780931664035736	10.812507288706609	2.7167050434009914	14	-1.4173434050163178	1.0836702416676085	0.3557802982229386
Si	15.01026660413886	12.314549051716835	4.016689165812005	14	1.3223786015745205	-1.0220279916170583	-0.15878272281425684
Si	10.226832258564949	12.53911194119629	2.260496394236114	14	-1.5559871740789188	-5.384634504501216	1.8195118425358998
Si	12.494166723345533	15.2149028011725	4.398576637746546	14	-0.14474783020316453	-0.006923215295562732	-0.687924168127224
Si	11.020848120617563	10.796546350777037	5.3890197481839515	14	-0.6329773334408714	-0.5815094613632111	0.10419635709378904
Si	12.415618671960024	12.071919947218936	6.752978182132717	14	-1.3080534311727834	0.3417274078746053	0.8284415016366169
Si	13.668079020085848	13.435519341664174	5.440019677662389	14	-0.055926168702796986	1.4454008489329657	0.4499280043939929
Si	14.9374142248775	14.91319537836678	6.9103517245201	14	0.02657468747851853	0.3416734146628822	-0.9577650139136812
Si	13.665190384080189	10.735640194996709	8.176700373441495	14	0.19652037826126229	0.2922089478506813	0.4190089202560202
Si	15.127819401589477	12.117322124437822	9.57382100153432	14	-0.5422144874237921	0.03459319364046434	-0.42113650990844276
Si	10.908925715381365	13.405425303277537	8.159172717678345	14	0.5924965657278001	1.112159374167509	-1.0582126994506942
Si	12.29088508443884	14.860334971460968	9.44020934628953	14	0.2581767693910733	0.5012251550783953	0.15313014776791128
Si	10.943442467652371	11.015739967681002	10.95028053819684	14	-0.41022113938228605	-0.7407716953196757	-1.2878710257412171
Si	12.380220640907627	12.261688644811024	12.185115310694918	14	1.0688388206283341	0.32165761685606137	0.11865085409312953
Si	13.839797822636926	13.638229781360709	10.850451236238568	14	-1.4606264204178185	-0.8242200038114657	-0.79922166100473
Si	14.98000936597789	15.023387865995073	12.207294160026501	14	0.16815311615353654	0.47431390991346944	0.2697953372222905
Si	13.735513166839418	10.864323217056702	13.587197211927405	14	-0.5091765553914852	0.06319494055338762	0.41146863968362196
Si	15.050364788691986	12.28383485418774	14.98973607252802	14	-0.8606175991656101	0.006995720465590908	0.0003545554236484201
Si	11.044707927624756	13.657389434867168	13.42734303297019	14	-1.094391236631562	-0.106973665060613	-0.15369142005929964
Si	12.186274029092667	15.080834186559583	14.761289028419485	14	0.2826238672171693	0.2932564161581097	1.3048488055017506
H	-6.295545534660357	-1.1439161782182783	2.028145611525583	1	16.719926693302543	9.095175540937191	21.432488922417377
H	11.017886044713457	13.441784581000741	3.292561975118898	1	-0.848343656588287	-1.3228853664331217	2.1132721953367586
H	-5.742458235457111	-2.7497758456714254	1.4139693727947573	1	0.4532688986469933	1.5481581583790678	-3.4793215349950586
H	6.632427404827637	14.836622044250674	1.412200287241009	1	0.06521531511395998	-0.054688695712209724	-0.026084634804498307
H	4.047506179198928	14.87871126605064	14.989491272866523	1	0.2969513516136945	-0.08379746459426618	-0.14268837484172592
H	6.844766631209701	1.4531307906432238	9.529789702419814	1	-0.013498302930777414	0.10215618502225154	-0.046351372490565534
H	14.974628669418198	1.463575576200408	6.891616390426901	1	0.029965204064197806	-0.013542525942283962	0.16509272949096426
