225
config_type=interstitial dft_energy=-23347.949826511318 dft_virial="-50.66928904750354 1.6602413550536763 -0.26340367652293906 1.6602413550536765 -51.786759190328134 10.695785652749647 -0.26340367652293906 10.695785652749647 -54.29707604688766" pbc="T T T" Lattice="16.3199774331 0.0 0.0 0.0 16.3199774331 0.0 0.0 0.0 16.3199774331" Properties=species:S:1:pos:R:3:Z:I:1:dft_force:R:3
Si	-1.6569020288729106	-0.958961873968956	-0.8045585674743969	14	-0.6160129234280023	-0.8931197128491979	1.578443207945092
Si	0.1660068104494932	-0.0437538594981411	0.19649252829452402	14	1.1639334648887991	0.03231056633723688	-0.40128603417370745
Si	1.4025715005554802	1.5830378110107	1.4902097793712272	14	0.08712807442598601	0.17798939377682702	-0.13073633465048556
Si	2.7449875642925536	2.803967962735777	0.0162710175008007	14	0.16961684641229685	-0.5441813829937053	-0.46500907975985356
Si	4.13316484475204	4.069794372379313	1.381306569960151	14	0.12893553248425385	-0.5353460366715485	0.328648195111012
Si	2.711972249945392	-0.003916794583944	2.5711308446977394	14	-0.09688747600020409	-0.22338020131978528	1.1202642694682121
Si	3.986905206996598	1.288951817666238	4.1770166241147795	14	-0.46882639982867735	0.8539496946283379	-1.8095848048948082
Si	-0.1637056936314261	2.9252253950637104	2.7643593775056434	14	1.0000542971089448	-0.7326151208020378	0.13021234338623938
Si	1.2911713345971396	4.188832287776344	4.116404227928246	14	1.06181970310433	-0.7132266726933333	-0.550286472576397
Si	0.0501349706744832	0.1161655993688058	5.331687667461471	14	0.018293928573917612	-1.1119475150891291	0.4822398562838899
Si	1.3239255293053713	1.3128279446508633	6.883276881958587	14	-0.4288408270002665	1.3188428175382527	-0.15919435677601257
Si	2.6219838943792793	2.7122823295166216	5.463324605436855	14	0.004268291941977826	-0.19775348037280532	0.034246608643308384
Si	4.158444489795912	3.9108541121583515	6.752749702448653	14	-0.4462047867798865	1.1195402462100583	0.21726919819485732
Si	2.589001219986984	-0.032868434550263406	8.204868654491026	14	1.5828950768069285	-0.42487052616489374	-0.41437476002698526
Si	4.073335807482295	1.31049418787793	9.530067142036177	14	0.21829301233334025	-0.42565085662955876	-0.7800918660912324
Si	0.0083884684006134	2.913605571131343	8.204803374581292	14	1.5866046675628382	-1.0309903505420304	-0.28203971208843165
Si	1.5018459232810275	4.035310260063173	9.63209964094792	14	0.12428363162850992	0.15141342074564842	-1.2353130050078138
Si	0.09816466426009651	0.1052312144886288	10.951259736842825	14	-0.2661862766843986	-0.39547765014496095	-1.4432987132232127
Si	1.482816829594033	1.370208985305643	12.182079794892362	14	-0.029025465069683676	0.600309640574666	0.37667155739126984
Si	2.868546113438554	2.7000260264643634	10.86778305227252	14	-0.9637978554368763	-0.7039475535929188	-0.2608862001774454
Si	4.15606177309068	3.9910341612871716	12.112393491253025	14	1.1353720843294022	1.3175472375674302	1.4503674530798958
Si	2.731996862255806	0.0882747579356379	13.549204304463148	14	0.2420690516708776	-1.2035107461923704	-0.21702854273689146
Si	4.018468043352213	1.3711718639741957	14.870420717514625	14	1.031123790908146	1.097762212816808	1.1242201721137919
Si	0.1156760000458128	2.6031016804891824	13.675994209140903	14	0.8405614350052628	-0.082839213641447	-0.21795311221001668
Si	1.4394709695317194	4.094617058055058	14.914745776222924	14	-0.692403804926518	-0.5589654956950888	0.6175476161935988
Si	-0.0580011997972374	5.270504072064779	-0.0288537201017208	14	1.0195157646087414	1.799781180309084	-0.4940317166136851
Si	1.3909679966005462	6.686947553438394	1.3526486895876273	14	-0.47397246712695373	-0.25822793438694425	0.3881875381202131
Si	2.7300711049187	8.093696968216747	0.0765733341161052	14	0.646164275517379	-0.16190430178344864	-0.013065585905396492
Si	4.1286768509579375	9.631022522437336	1.3180340174520222	14	-0.25637365323005346	-0.47249999511010493	-0.016205933943425357
Si	2.875955383193181	5.427420655084036	2.7720787268315	14	-0.7974388565757393	0.4202116833247854	-0.5404453098529982
Si	4.139594915860681	6.9429916793863	3.967190674257413	14	0.5614460981079676	-0.31035169543177427	0.7202941269973562
Si	0.0002611196389296	8.064190449017703	2.7429965270457157	14	1.006778251742196	1.0631445936758022	-0.7715982196661231
Si	1.2183515952906474	9.626681408440131	4.116453187860546	14	0.48309320613964707	-0.0304999939707886	-0.4469673766178424
Si	-0.0622770338847096	5.466947640427003	5.37459288813309	14	-0.47782526844919554	0.7036811870817514	0.5154477383778584
Si	1.3321671179090868	6.6445482520672	6.856397879126272	14	0.5099409450031652	1.2594047760786655	-0.8463561921758127
Si	2.6876881235249397	8.269691604855298	5.301185629639007	14	-0.03558126941499725	-1.0602806394596893	0.9770197645457379
Si	4.100018970585413	9.519475476682096	6.7239612622566645	14	-0.06460184938457265	0.12907102973462564	0.5469396647811602
Si	2.7659913752489533	5.309427218242722	8.130678037080152	14	0.5409893557387415	0.23420249783335256	0.14094722231892165
Si	3.9865298475156363	6.757988415204678	9.600063525246744	14	0.3106586854069999	0.8479672467694175	-0.6423790942650569
Si	0.0476869740595182	8.150980089006929	8.19163315279278	14	0.37396006972064166	-0.33816668411673223	-0.06681788506000828
Si	1.305418674896236	9.558023263379077	9.535648574318298	14	0.1278114452382851	-0.08275513849747816	-0.2068911886806116
Si	0.201714921073116	5.354421396025779	10.892654697880564	14	-1.9173627116995635	0.2339898674233763	0.5907171037357255
Si	1.1709094208926258	6.805479549535	12.381771038763773	14	1.5898455458188847	-0.2687717801943395	-0.06620236244636482
Si	2.520506274700263	8.208556969390905	10.99214128031274	14	1.1205746018803537	-0.241850250608133	0.04242735155095553
Si	4.009475735786575	9.657199766240026	12.27882462111578	14	-0.21758030193859518	-0.515941647709859	0.1141604186514909
Si	2.8059426800051823	5.327901432696992	13.58385161655362	14	-0.7144631172417926	0.6224697402184902	-1.3500295537400528
Si	4.0059016607287266	6.546954787017262	15.077896590621625	14	0.7917353736440548	1.153308372153287	0.16322944946545295
Si	-0.16233481552704568	8.194423868933841	13.631505950658273	14	0.010286735275380451	0.7487958579133258	0.26091885321501124
Si	1.3800662516752353	9.465750110972332	15.032396493538142	14	-0.21339094292994595	-0.3076494637402986	-1.0135487433817418
Si	0.0734888583812493	10.829333185440136	0.0029865558702573	14	-0.8384364164581606	0.027807532479529534	-0.04117059527046717
Si	1.3995196647754904	12.24982402121716	1.240497804667364	14	1.0114728329462543	0.1998345330189332	0.22400755101790137
Si	2.910276295734991	13.647728008226773	-0.1464391575072063	14	-1.9754126133968029	1.2329205915074162	1.6714907381496549
Si	4.181831017457545	15.064579489036216	1.257780660769017	14	-0.2448561298379181	-0.45468969144690724	0.09933156871753686
Si	2.803494683390217	10.934760239657962	2.7349507781711972	14	-1.0935813384557151	-0.35439292979218673	-0.11470832119521446
Si	4.2499832432181694	12.190109223789447	4.049900319888364	14	-0.5183877973114478	-0.1380274751173615	0.6644186090693662
Si	-0.15551306496000988	13.334612921195317	2.623925971693818	14	1.7855334001774834	0.07754093690821785	1.5823767419743866
Si	1.3069690727523804	14.920539368211676	3.973343305749691	14	-0.24635225602371227	-0.1254707109548223	-0.7954112829202706
Si	-0.0475727342174865	10.925262012791896	5.677638549088325	14	-0.6299614269003376	-1.5975606615530533	-1.3874411930324637
Si	1.410029730242407	12.145408805600185	6.764663285974816	14	0.06789055019957406	1.904550893889266	1.414069102391109
Si	2.6320043605232026	13.464568901495092	5.251540258287517	14	0.59194146408918	0.3148686132582104	0.4264599834738093
Si	3.9425801482882976	14.882383260973086	6.647012568659599	14	-0.11348293239963188	-0.3370333408916109	1.4828849933954045
Si	2.686137725668795	10.852882912876098	8.177336852561385	14	1.211924688352555	-0.2309446502821929	0.14082123815823439
Si	4.075473724526032	12.193242659456603	9.652695452468492	14	-0.606561026050074	0.43533903858640866	-1.7096773085855586
Si	-0.0794293301668977	13.636108184294406	8.239972925949624	14	1.7247121040556566	0.16878843627814513	-0.5712556362359287
Si	1.444954481949241	14.934019669571416	9.656726486894467	14	-1.9433591575915807	0.614669778008757	-1.2705327770147985
Si	-0.0847822827649545	10.986706727827519	10.727659726031922	14	-0.5942803985989187	-0.6829827608124314	0.8134825537734633
Si	1.205719932757428	12.310713857020055	12.182259314644124	14	-0.20137051133718964	-0.5305311277385072	0.8822444515660356
Si	2.5765327572280956	13.506805003091955	10.857958425857793	14	2.1851003933341397	0.16846396278674244	1.1218210737395617
Si	4.045967205326987	14.924864162231446	12.23456484231721	14	-0.5240761107217433	-1.1833494238244293	0.5277810734880768
Si	2.552509750446572	11.006339660679538	13.656606075950378	14	0.5302146246735969	-0.45500850850660557	-0.42986386980715335
Si	4.066709896644457	12.359918588980852	14.881681501943465	14	0.7654707614671461	-1.7602620059857474	-1.0005217240561477
Si	-0.10315857735462511	13.748340669101834	13.558278211915953	14	0.8590602806731963	-0.6838286544627601	0.09368362166076757
Si	1.465876693018475	14.961698351297954	14.821215985553827	14	-0.13020154474389475	0.05936347940530296	0.693740265471931
Si	5.491346006689488	0.1249294272503805	-0.06407223140235059	14	-0.1902916185126716	0.5535111528689267	0.7404153401223031
Si	6.969332122963324	1.334125515201059	1.4921192167308999	14	-1.0479943555768296	0.21365448122526112	-1.5518759766720018
Si	8.192334911822405	2.6928125964389333	0.0089433476333388	14	1.096720915162148	-0.9857083007541143	-0.2339901245339083
Si	9.511625567536775	4.043225449118226	1.3877040011139261	14	-1.6638596975594553	0.8530027565389273	-0.5913313407967089
Si	8.18721043890841	0.0368505090439398	2.875743223486551	14	0.8209768115606311	-1.488499001861948	-0.5911325943554614
Si	9.54302520411806	1.33871142885976	4.195915157982309	14	-0.8282142159263157	0.2979756799732414	0.7394961699703503
Si	5.433932326079842	2.5969000890646043	2.6722983848055266	14	-1.1816311541389743	-0.5724249749355319	0.344343507537856
Si	6.658746632433997	3.925737931577339	4.010144854861332	14	1.1359546967949476	1.2258181701710393	0.4822673671108155
Si	5.281177337306026	-0.0610530355772271	5.380729199647936	14	1.635064603526457	-0.5825566725601076	0.6844089529335176
Si	6.712015038775635	1.2753246365095996	6.786907415216131	14	-0.09490849623528612	0.34528118964811394	-0.039275690649518025
Si	8.10365215445094	2.7671337736692707	5.515630133109941	14	-0.26481176378024746	-0.8381890761263623	-0.5922865064231438
Si	9.446068218188012	4.237661660256179	6.681464041020872	14	0.1482895277816685	-1.4702904339846592	1.548212665811855
Si	7.922712564650158	-0.10607985331514999	8.231600777526442	14	0.9368470152500203	0.33893287350213636	-0.2916926699023956
Si	9.353256506525973	1.2981726049159397	9.543221043847256	14	1.1550490104550273	-0.5738925618522724	-0.6741409867269741
Si	5.473524591332543	2.701723304117406	8.219556634180815	14	0.3177994162126472	-0.25189530198341953	0.10947715031084117
Si	6.919588831747235	4.122197819916996	9.545097841252062	14	-1.1464067541424134	-0.8472187980107223	0.5493696164192322
Si	5.321373441723751	-0.0641701512669492	10.941320870586068	14	1.055745723896012	0.28789257623921677	-0.5748155886622057
Si	6.746972430437336	1.3560922048260113	12.243442910040818	14	0.29432548175022727	-1.0513905285942133	-0.42428868503094425
Si	8.151371768465324	2.6003272843255556	10.913886988521027	14	-0.16713727244154603	1.4229772109938263	0.10196078101792029
Si	9.543318963711856	4.037464497084342	12.188085546587743	14	0.2149145799426657	0.6196422956979234	0.46626326493502174
Si	8.058576376780717	0.012109423255360201	13.663411506539981	14	1.2042165146027513	0.012401983622266273	-1.4396261463839133
Si	9.650149535988927	1.1459398554199827	14.91229777960796	14	-0.549785621260032	2.1883592693274276	-0.011090977019522769
Si	5.5416604971157355	2.698524588540518	13.564789882911759	14	-1.1435296872891678	0.7183182325588224	0.742323100269853
Si	6.934896970579483	4.044302567628811	14.958793395314862	14	-0.6282490707571191	-0.40197714728376327	-0.3903009866933748
Si	5.545560971722246	5.260826325446951	0.0291637996729497	14	-0.4682589568845207	1.0956991579079212	-0.28010418400342424
Si	6.770489517918432	6.840339021332101	1.2474990749861639	14	0.2923480446485014	-0.10827233035781977	-0.7967598276606882
Si	8.168001825469652	8.239581246491229	-0.0730318990131225	14	0.04706639688009872	-0.6138277410164085	0.1405782687054804
Si	9.629423164648891	9.343268680336916	1.4031426997656387	14	-1.7726364787810884	1.3339362342096501	-0.15958465056361104
Si	7.949656847392207	5.436004963213846	2.586830662988382	14	1.0862611444987216	-0.6245276529167368	1.1282125844549178
Si	9.445545978910152	6.779987744784497	3.982237693450731	14	-0.6662037274931449	-0.773020298018697	-0.34261623898378046
Si	5.58495739724575	8.251788589611188	2.5645538937922003	14	-0.8205906315415447	0.2585948311161294	0.8730910595157764
Si	6.9961458458859065	9.50586461550289	4.032976503290239	14	-0.2974666011198521	0.20209967680598362	0.3030451283329775
Si	5.489322329487783	5.391076065340522	5.442435034322487	14	-0.951061371012459	0.27373401346222526	-0.7933538844430881
Si	6.804973630234573	6.83880494345339	6.676519087858643	14	-0.77859342591065	-1.057219738576053	1.3816996577420408
Si	8.233118535427721	8.021725867736777	5.487233372376347	14	0.7869374340061265	2.2324966630268133	-0.6612067843034373
Si	9.493771512224964	9.62119789602261	6.926361622381971	14	0.7882199013398163	-1.8623408007378628	-2.0405343402771097
Si	8.057140218766603	5.4454705501250436	8.128115800623156	14	1.1192283711347242	1.2226775650224784	-0.4250296775842109
Si	9.449022134103403	6.989944254461329	9.404517555643341	14	-0.3589499568616172	-0.9930894299071956	-0.05076416055153568
Si	5.522337643834945	8.180453968251108	8.111828463144922	14	-1.9303254533921541	-1.075691587638125	-0.3953413815629931
Si	6.7690370399268875	9.484567044952694	9.407863151017125	14	1.1078126635132668	1.6233984702468174	1.01205930206978
Si	5.521211565392061	5.521913324421685	10.89069630058859	14	-0.5237107566557503	-0.5978879164736185	-0.3551940862099449
Si	6.756764416897195	6.908050607702033	12.251080659479507	14	0.45970360393172793	0.35562011836149343	0.4815919377432126
Si	8.211070245915602	8.294661170327942	10.832858300565684	14	-0.7977491889878812	-0.02576658907639599	1.0841402397201314
Si	9.496039989088164	9.569430927604815	12.449547905043437	14	-0.8410355468262981	-1.274919339801503	0.5818635025657956
Si	8.135622990242382	5.468465398328282	13.601036552790674	14	0.7147747352065943	0.10261975531147423	-0.6228754606380097
Si	9.58287858900969	6.752570182696889	14.993065347924372	14	-0.8596380080386335	1.296759079722437	-1.4933205956688218
Si	5.2366074789362305	8.132212114958865	13.72136374640492	14	0.4022651110796199	0.10145298771719102	-0.5285266940309197
Si	6.6162657311756385	9.567994769590703	15.042465919614365	14	0.7648868634489404	0.25129803421754915	-0.48243551739875323
Si	5.4037077278737415	11.107164481261231	0.0117177437969658	14	0.25787980672659616	-0.6395845598925879	0.18540317596747402
Si	6.925333463803685	12.29667867642759	1.4027673402846774	14	-0.765833544427819	0.4400446755433437	-0.5073857805360021
Si	8.186019080555795	13.778124627917242	0.083068685134479	14	-0.8299376278224111	-0.2653131293176763	-1.0134042472627494
Si	9.671169666922761	14.892322127229846	1.3610208380108075	14	-0.5370892460786089	1.4646044345691518	0.7656455966289162
Si	8.306721633651001	10.969913471048859	2.661429279835082	14	0.5331053183850395	-1.1987863401665984	0.5844119821591264
Si	9.781509034347948	12.19433609794462	4.0567547104102655	14	-0.8595166518675226	0.6195615629908707	-0.3110554069578988
Si	5.424695218852708	13.61471269387961	2.6969089107746416	14	0.567860491660673	0.28896292738399443	-0.5047755944149879
Si	6.816087534866514	14.860106491776905	4.091695782094533	14	-0.29370533114700753	0.82700245398893	0.07336263365244522
Si	5.6223464655449815	10.855820508814057	5.504597828365165	14	0.057840099503115215	0.08913739323368172	-0.4682113914360979
Si	7.034677312605456	12.293202521234338	6.80748690675927	14	-1.021071540437963	-0.18753745049372894	0.28959079130317456
Si	8.311617626880933	13.582643938223569	5.3414633339438975	14	0.3250504474365288	0.09495117658360057	0.6681323135937881
Si	9.501392941686222	15.01052772377779	6.916161636486284	14	-0.5147643385837631	-0.8537699743664596	-0.11020708711123123
Si	8.344583981295793	10.927987449023224	8.211853604832392	14	-2.1498567100476778	0.6254493941740099	0.8610647143807838
Si	9.68784868385939	12.172989567462125	9.583156028626052	14	0.35112402648815044	-0.041957096387900454	0.06282187317143414
Si	5.424319859371746	13.561623807289738	8.187145158998678	14	-1.186400554507849	-0.9725457841781483	-1.6553508816129576
Si	6.630056112106607	14.810248960718784	9.537166332219575	14	1.083401561161653	0.9803920262836442	1.2360925641408829
Si	5.506915265160665	10.938236394851213	10.848868198427557	14	-0.13094922217099383	-1.5405476866314296	0.40947011951827084
Si	6.864557867842822	12.267612796619238	12.140088492956995	14	1.4090058246841415	-0.8473185568971441	0.1153338711196065
Si	8.278879752150134	13.533912485608335	10.769128788689429	14	-0.8805292672069647	0.7555614644527635	0.21060463609450147
Si	9.470156504879268	14.965974185385425	12.200700889143528	14	-1.0982196124532624	-0.7731948760699351	0.9840710208862442
Si	8.150735289345432	11.01508716858368	13.781258063584398	14	-0.7488423949196206	-0.721140020647685	-0.6590213447813114
Si	9.531960259418417	12.383011357048689	15.06608092696006	14	-0.38081617916734856	-0.8179639903464815	0.5921821195471458
Si	5.533859547902714	13.427538872699389	13.486959910533306	14	-0.8609832103421351	2.5368671961523273	0.64455270670271
Si	6.697163859311515	15.094477687693654	14.911514420691171	14	0.24478259622576187	-2.27539118441444	0.3755446419294489
Si	10.998701911240847	-0.1041867359329104	-0.07180790070564	14	-0.32131591695901374	0.4309421913784235	1.313233694171818
Si	12.181818675253432	1.3463165383435844	1.4001071839630823	14	-0.611284403633718	0.7476720277778891	-0.5679921322530648
Si	13.583770016666454	2.7428496472488177	0.0598779972020439	14	0.1952361111538483	-0.9955841733993352	0.5911313088028013
Si	14.875822630044981	4.185454052447692	1.3447171805551408	14	-0.9060413168566661	-0.16102986886406628	0.8342568276497278
Si	13.591326166217979	0.1418369238710721	2.7389981325746064	14	0.1304404004281365	-0.5114360427468313	1.279900342138226
Si	14.965941545430558	1.4682757297011408	4.163568962709905	14	-0.4634270786563664	0.08731396534063271	-0.9608752800194641
Si	10.620176354657525	2.729026626362982	2.766383054707348	14	2.7633072699136205	-0.5429850476882405	0.16635437087156094
Si	12.252924816929449	4.147608024780333	3.9510012566437775	14	-1.1571899698551147	-1.768389527013268	0.6396280115724984
Si	10.828664066365377	-0.1315716580656522	5.4448177510277205	14	0.33369990284403894	1.3943687792070705	1.0977647839221283
Si	12.26682943770245	1.365802591398706	6.798788358787428	14	-2.0055626799335196	1.095800459457535	-1.7780370855060592
Si	13.53242736766192	2.7873379057314485	5.394992859924465	14	-0.07012689760703886	-0.18801336208848834	0.5192694293257265
Si	15.039201924127745	3.9894837634310276	6.73425916801695	14	-1.3357722605187679	1.3831857566170866	-0.2240283769709946
Si	13.633154268379016	0.18342022637061092	7.960966591753345	14	2.4307851904167417	-1.1587727422901979	1.9615355866523676
Si	15.156901601375262	1.5029230417916122	9.48053601052672	14	-1.4402092730705227	-1.4090184231002103	0.09764003852741143
Si	10.816391443335686	2.6667985524105715	8.120363811342433	14	-0.26169018481105566	0.86193580486325	0.3715889963944011
Si	12.22534405506751	4.1849318131698325	9.525040588986784	14	-0.2802196266322988	-0.09711758992635734	-0.16931139910026324
Si	10.793625074816513	0.049302651825395095	11.090828183850697	14	0.744564589887958	0.38030761453502326	-2.3210581286687817
Si	12.309179779141344	1.4585163831961472	12.130312826474569	14	-0.8358467991797074	0.06693641301526711	0.01699269217139067
Si	13.662970867149287	2.6900871602076055	10.809651292655817	14	0.17188944640477574	0.9735379737211934	-0.41289046092566384
Si	15.100254959704973	3.845492602538786	12.301721549454417	14	-0.48812717324596494	1.472611113646625	-1.0704979548914257
Si	13.567988598488647	-0.044488258482630605	13.270295890131468	14	-1.396876378225811	2.1793290332220034	-0.1620655100870219
Si	14.893285005898397	1.3060877939709932	14.944366535264	14	-0.46000082370673706	0.010870890404118093	0.518583458426311
Si	11.087254108792848	2.7473702809977865	13.612117817467748	14	-1.297544038176678	-0.10780258941582872	0.2562322424374453
Si	12.415112752659597	4.098321692932371	15.016712995224934	14	-2.2967257021399647	0.05187153561292346	0.453660992208316
Si	10.730042442737156	5.4217249829598835	0.0274338820650411	14	1.4249240519422424	-1.3430086364423246	-0.39674160552034576
Si	11.967374171782497	6.809902263419369	1.2955124485943441	14	2.511051756074848	-0.30589365591716944	-0.025827267161951484
Si	13.5969565584324	8.134904911235326	0.10906640918540729	14	-0.9401393156124699	0.28019083025271313	-0.5421743781807977
Si	14.98431784002023	9.487651520687551	1.4187935581239817	14	0.28651754911400157	-0.11143813233851813	-0.2607190783316357
Si	13.43971357586448	5.573174373539052	2.763624978521154	14	0.9371128675401236	0.7281763645773343	-1.7814466282711077
Si	14.895161803303205	6.937818246540007	4.026301632520101	14	-0.3679501110347955	-1.360968835545687	1.0090158847023207
Si	10.879696635798682	8.059588215381568	2.737855734154289	14	0.06904986158842882	0.8806861046314938	1.6681279895014334
Si	12.207522639710565	9.400013241871804	4.255907395026385	14	0.5271310980631433	0.02286278272782075	-1.2556165094999592
Si	10.747847538116666	5.339113257193532	5.217986384685063	14	0.7914129570369082	0.8396921442965208	0.16444249695549884
Si	12.084062010429163	6.699807695655677	6.625013239079779	14	0.8220551331319012	0.016188450427248348	1.0169253759986923
Si	13.637071062962958	8.109527346326855	5.572391014622263	14	-0.5212322111271276	0.08198380690143373	-0.4114133609192387
Si	14.960768112584265	9.448516214802977	6.929919377462387	14	-0.5170449090027345	0.6508357167735559	0.23458816363137477
Si	13.677919966478008	5.498118797324224	8.10613279102077	14	-0.7223906062754051	-0.6723936635514015	-0.4633139500222799
Si	15.08987545405752	6.757874175362646	9.494962870577579	14	-0.32003087852000367	-0.3615969097887096	0.5940649399730903
Si	10.884984308487008	8.172865178744717	8.075957152746968	14	0.10843636687724523	-0.250496106468195	-0.5716353884917145
Si	12.167212295450808	9.47301250093006	9.45905892022476	14	0.4612845765930871	0.09217104040092446	0.7453225517363378
Si	10.734269316892329	5.719368731384761	10.84457604436265	14	0.6791019344421998	-1.9392407610897677	0.04247620255203835
Si	12.3403182960837	6.750301705833688	12.183483312951608	14	0.1671437002048464	-0.046544719610640675	0.1321121331072968
Si	13.650845123916495	8.17436661666856	10.765946393089974	14	-0.04283590018632707	-0.39837014363012757	-0.41942466798628814
Si	14.818735348983997	9.595901931001304	12.121646918457591	14	0.9567951929869212	0.33588997035574114	0.6733177188034627
Si	13.637479062398786	5.2527642565949995	13.581566819712986	14	1.1604167070319005	1.681581040978576	-0.7349103465213341
Si	14.916736813469763	6.800077637004643	15.039250884060044	14	-0.23372555779646506	-0.7361264793377641	-0.498215676301162
Si	11.089114586220221	8.141906181554125	13.584912415086771	14	-1.2533109993593825	-0.3617786869348441	0.3521727803482389
Si	12.215601028539949	9.585848824902515	14.983028561803014	14	0.9335439162452261	-0.1272036359406021	0.313923989163588
Si	10.75701936543407	10.783474048853124	0.051212089185067804	14	0.6687856314556377	0.7343051083289712	-0.5626262354499156
Si	12.228053171321402	12.062927639653298	1.3916044757204369	14	-0.3483238356839772	0.4641477594776039	0.32075927265720167
Si	13.486225511548815	13.475062646984576	-0.011244464451405901	14	0.5709414471658065	-0.34096198982079723	-0.49017608707559096
Si	14.861689529587917	14.833766048199882	1.7150337884896127	14	-0.9702937530282306	0.7250506718396302	-1.23271053220276
Si	13.593986322539575	10.74992017525067	2.767917132586059	14	-0.11718969493968937	-6.170652768355389e-06	0.8840627372484442
Si	14.944529735038332	12.09946806912601	4.218861046253248	14	-0.26850387101998013	-0.13285235432896744	-0.9968363016902474
Si	11.04746600381095	13.673170853044976	2.714681366199287	14	0.20591236888523123	-0.9556870465939374	0.27094796373731284
Si	12.274809906667235	15.032739213064238	4.17254495029811	14	1.0819347455765083	-0.7661929849515757	-0.7748208430743967
Si	10.929521526901937	10.823001034196093	5.516560371823628	14	-0.32597013180954576	0.19664070599024522	0.16269671644311826
Si	12.262977923028238	12.242888030808093	6.797156361044118	14	-0.1819679221492242	0.3908465752423102	0.3244745198448156
Si	13.67018429717472	13.53247632759422	5.447020947981189	14	0.13676094863665655	1.6920148434782691	0.2808058386452926
Si	15.15151600882234	15.061723492985422	6.8036680320399245	14	-1.38435380976403	-0.389592390067142	-0.6934918966980046
Si	13.54378607195536	10.9250172131304	8.230099339602598	14	0.2955974075521045	-0.8110595441197557	-0.23523813905630822
Si	14.840098199443926	12.359020990222032	9.491372475542297	14	-0.045581326447181186	-0.4374535156016985	0.12269905941970266
Si	10.962275721610167	13.658499193332618	8.245668598073774	14	-0.3848312172352918	-0.5349953379058802	-0.7549156027963422
Si	12.230631727755833	15.106652390858747	9.486900801725628	14	-0.12855500889687196	1.1370463881138826	0.2539236469704844
Si	10.785579325941994	10.621808352400835	11.017518845221211	14	1.2139993132353823	1.7414186322049143	-1.3092232840934508
Si	12.145376165645319	12.250835859818013	12.167555014976902	14	1.584327953801847	-0.820356146736347	-1.0448298391487914
Si	13.499428373292194	13.719225829361186	10.780014213637308	14	0.13245794677285672	-0.35161433627270267	0.7033551709271567
Si	15.030601296020501	14.988071434829843	12.071968907151234	14	-0.46853869314335284	-0.34874523984594946	-1.0131191116827452
Si	13.551162701755121	10.988322405593395	13.581338340028923	14	-0.20946152266916362	-0.584007033071203	-0.21025599421308938
Si	15.059275496370457	12.19627817525916	14.840049239511625	14	-0.4262180424631834	0.22404868870302377	1.0969052634136025
Si	10.837917493569947	13.429856309494888	13.495168859182153	14	-1.300320831922438	0.6866802673733363	-0.014824479054909797
Si	12.216417027411604	14.995594944426502	14.785246755291276	14	1.147436224712601	-0.53964415343524	0.5913161712753201
H	10.691336352259071	14.767817019392727	14.330107064648267	1	-0.5239776373879818	0.5706159452322759	0.1293566795356941
H	14.385342028270594	-1.0204000610136044	14.010494994600693	1	1.89886258047897	-2.148011170648876	0.4790905093772405
H	15.051714450825704	2.8648806465070793	14.551371686688494	1	-0.25937567580185833	0.8538728185792654	0.0063439452669333705
H	-0.6198457988910845	0.7509588655908666	1.2213789511044875	1	-0.8172667065836574	0.4857455583879118	0.5618541325222752
H	4.105964338364292	6.686947553438394	1.3526486895876273	1	-0.11148569778694085	-0.009778427753587175	0.08413685049652574
H	14.981825779466195	1.365802591398706	6.798788358787428	1	-0.1949265500733025	-0.11685545124807012	0.11824281967882203
H	14.882208637214553	9.47301250093006	9.45905892022476	1	-0.0880428736988947	-0.020299133613101098	0.08427800417860186
H	14.98980624843098	15.032739213064238	4.17254495029811	1	-0.009292488848079187	-0.060122212585278646	-0.2652743056273421
