68
config_type=vacancy dft_energy=-6819.348410776805 dft_virial="-10.093630889993468 1.279407844335 -2.4950813495610613 1.2794078443349999 -7.759065653743811 -1.9014077834166836 -2.4950813495610613 -1.9014077834166836 -10.84546003837114" pbc="T T T" Lattice="10.868892549324533 0.022716053576249 -0.0109558765573488 0.022672577875624603 10.868990369650938 0.004608424266186401 -0.0109558765573488 0.0046192931913425 10.881489633580452" Properties=species:S:1:pos:R:3:Z:I:1:dft_force:R:3
Si	6.988660183176457	9.540578381254724	9.734602824893813	14	0.5275203634086137	-0.12711930368610125	-0.6021104427408976
Si	1.409243097889614	1.3402884629142844	1.4693026045171913	14	2.230062340509697	0.6150847544074289	1.7415327892811292
Si	2.966881804720493	2.6615563068053936	0.22136413797674193	14	-0.16438361864366743	0.2644214699926489	-0.6664731793306965
Si	4.3740511116903225	4.194638851031096	1.473013255565484	14	-0.302256056110224	-1.4809916314376474	0.4613005174460719
Si	2.8725873576362315	0.03341759728494506	2.8326766644630323	14	-0.3160032420359918	-0.39100572666162736	0.517089646235305
Si	4.28296082374208	1.3022385297278094	4.2621435713906015	14	0.03389488143551212	-0.19251099662502338	-0.7103604044824321
Si	0.22414114835412546	2.7138836600769216	2.9727075486041623	14	0.22787526475100012	-0.19191861395926127	-0.315764643462282
Si	1.5145021166713488	4.108777602975453	4.337516306670608	14	0.8819284627221893	0.2426627198892998	-0.2778452108691421
Si	0.17956659939644373	-0.005944215167871091	5.549088436531262	14	-0.08275822382386233	0.21797908037375016	-0.47597330128709286
Si	1.550647814170475	1.3708540542382686	6.826517557697758	14	0.10864462640817724	-0.0787552699509238	0.797659457412208
Si	3.0070457438498286	2.6854212057706426	5.5516915441061485	14	-1.0866915475293144	0.4340701981109156	-0.0026762635277421355
Si	4.2544364165624105	4.044902016725568	6.967476648047219	14	0.547125812806339	-0.12048430929692712	-0.213322294417898
Si	2.8770381824876545	-0.02469637173969042	8.249523975512542	14	0.17696326564355594	1.0201613691546307	0.4076101819296757
Si	4.371262145495267	1.3339833994312307	9.66227447555003	14	-1.0264405225674964	0.2594983175256294	-0.43877892039423483
Si	0.18503584253499325	2.6130656841139692	8.348274681910803	14	0.40404971528233463	-0.1015722870040459	0.18002853740623645
Si	1.5335433866523205	4.018927459387521	9.685020962116715	14	0.7034091641388798	0.17489738251881698	0.07362565772669637
Si	0.2874015534401743	5.430431293709603	0.23506441813600593	14	-0.6133433447740927	-0.3405758098017109	-0.43372027067684343
Si	1.5915932290185348	6.820336399961484	1.6067021218780295	14	-0.1393819334000155	0.4334361635389671	-0.5197168016514323
Si	2.7874967163741555	8.242275489325937	0.04796130603632248	14	0.8422172268314383	-0.691710120711142	1.2248727747448207
Si	4.295665510357045	9.487264129579023	1.4628790697499363	14	-1.0296734303970505	0.06393696154878235	0.019021808490051535
Si	2.9842329568396906	5.420565570345411	2.877027313562498	14	-0.7477674157852666	-0.10329929844758937	0.3303173566848522
Si	4.272827724819048	6.815418211328349	4.20418937556576	14	-0.35275847814016864	-0.27601946898130497	0.5500103358650131
Si	0.11300638863300294	8.246763268522892	2.812827833342962	14	0.6905829481387891	-0.4206233172865412	0.3223502726293093
Si	1.5738986188644042	9.447654505632647	4.274195035603685	14	-0.31058977978442	0.6480144429057574	-0.9301024917742078
Si	0.20027407560384544	5.487595318675595	5.748136497377501	14	-0.36982418970265146	-0.5422993338993569	-0.6914452968631668
Si	1.614760342988762	6.78237776574632	7.043038502624942	14	0.10062380625144328	-0.3543574485387687	0.33404314540427876
Si	2.85665568714242	8.07512120245776	5.5995506822460035	14	0.4752945294825739	0.04711010567054124	-0.1743636210543542
Si	4.1973256493296836	9.41985505576089	6.971894866123173	14	0.3348954668179078	-0.09326273171985933	0.09035995381341215
Si	3.016553879576385	5.369528358489912	8.33873611319381	14	-1.105211990481937	0.20052847434484114	0.5393947562191856
Si	4.26044801906625	6.792545645229852	9.711418320643334	14	-0.1832028240344913	0.28552638801308444	-0.11931188527093958
Si	0.2577098236987403	8.164231172242562	8.340296890846226	14	-0.22167890092944326	0.25626618102767124	0.21079361233553237
Si	1.4538774259356544	9.728647740800785	9.75838620692039	14	-1.610238267665639	0.7914677215802274	0.532681857338811
Si	5.608817527834094	-0.02333666920266231	0.18083935053222303	14	0.8595616462106253	0.45936601780319253	0.1866193087839041
Si	7.07660391729201	1.4132298196368713	1.4686645986105282	14	-1.0204344205396305	-0.3873097627639145	0.04681108612180802
Si	8.50691968727427	2.583781539065889	0.08579386071967536	14	0.08867408005499106	0.08718052497451703	0.2891732437991825
Si	9.72405127235227	3.96443936379496	1.4827279008700063	14	0.22828432760743572	1.106008518910119	0.32544922587168373
Si	8.333682062996225	0.03464035136500632	2.809875833270566	14	-0.17783332768389404	-0.2509599338679496	0.06717038359940058
Si	9.653386955449886	1.3860031621208408	4.129968746352301	14	0.09159305592495516	-0.3102748193827018	0.9393888099695188
Si	5.6507509279788435	2.63787835335283	2.905902787024709	14	0.02454402849666558	0.9044248629418891	-0.5306229161984364
Si	6.924453094709312	4.088182076697159	4.275138458307235	14	-0.13372344481143358	0.34443169645033705	-0.30741369338244107
Si	5.516783817182302	-0.029826504413369623	5.7066856775096815	14	1.1266786630209173	-0.4032369888906358	-0.6791764964964842
Si	7.025684089828197	1.3328247720095905	6.929725610302537	14	0.11969909373215389	-0.42298179219671306	0.7817250321905903
Si	8.261778688626045	2.6991030087571413	5.527830992710962	14	0.589218920665675	-0.18553378811773755	0.06752313924932489
Si	9.650233880262101	3.9860859151358485	6.937131695903904	14	0.25989015397641996	0.01286221147457278	-0.026607854737148436
Si	8.504543740235148	-0.0008662533349411701	8.40538110157347	14	-0.23061503458014992	0.05150618154693042	0.04709725014394049
Si	10.100612792632964	1.1408784668603489	10.00095127030662	14	-3.5518503591921795	1.3775918027720404	-4.1438913250572496
Si	5.691523526916922	2.7400255988623736	8.268255481126564	14	0.3534346788393676	-0.07383854524720462	0.727407346976078
Si	7.110454097798168	4.054463410185389	9.756416757682105	14	-0.37413233377709165	-0.0012984081866747798	-1.1544789964055504
Si	5.721618493781648	5.506999610756781	0.1187201825875647	14	0.2439001928798871	-0.4120381395120347	0.31767548893621605
Si	7.033866216685709	6.762644145232906	1.5882042981548627	14	0.09040829059343092	0.21720492056185356	-0.375475993417401
Si	8.37065705948476	8.07428212143571	0.09728340150218867	14	-0.29896195597405023	-0.16710127696706395	-0.21082652248363024
Si	9.665114525693317	9.597371775872894	1.330053196094785	14	1.3071838833535094	0.7585169500182737	-0.5597509683703941
Si	8.39469260057496	5.36525795779608	2.895744689573818	14	-0.3261699066929213	-0.4161555075717199	-0.2412984914064292
Si	9.732626854300433	6.758279184890216	4.171452172995587	14	0.07982767797995756	0.4822154307833485	0.7233714829550415
Si	5.553092548558769	8.12430634946666	2.8355232359614146	14	1.1765388229418892	0.4576192088486839	0.1385100715859533
Si	6.999171520694922	9.525304280732858	4.191865101331259	14	-0.7089527243196512	0.15858166237822127	0.35649069462289557
Si	5.537209788228161	5.474184151925483	5.634746435686487	14	0.5751598596645735	-0.13116442368629025	-0.20789237709227723
Si	6.911584287324491	6.831207498902615	6.988704745769598	14	0.44259598335252665	-0.14671009778350158	-0.3568524491414404
Si	8.332350619664602	8.148998373636289	5.572751173488608	14	0.10826410282079531	-0.23775345139100906	-0.12088565883740222
Si	9.781907647850705	9.473632323648243	6.911309303518041	14	-0.5592416324064727	0.17639530847833523	0.2965016652932006
Si	8.336530808279637	5.402684014678596	8.216971544670022	14	-0.04439476134193285	0.1679338008697279	0.7563302249434878
Si	9.766448775601186	6.748755832668441	9.587735386829495	14	-0.11906968714978164	-0.1696528418867789	0.4544585490786259
Si	5.618136544262935	8.16494960819538	8.392755758112143	14	-0.07971017846682679	0.2700208231588675	-0.14642187687711294
H	2.293371467142506	8.87569579646565	8.968925088884614	1	1.6332470891756445	-1.5538675548529888	-1.4498218645309604
H	10.969036651927807	0.3226179578384539	10.830856745740762	1	-2.5119593562528606	-2.37398818834201	-4.286999304287224
H	8.843186841323755	8.774040913265678	2.1830377472053883	1	-1.2816458655400744	-1.228503946788466	1.301362129577098
H	0.4889081651567215	0.4780196759353405	0.5682447974411579	1	3.4404500221018672	1.3663825549077908	5.448188628467828
H	12.368383593462791	1.3860031621208408	4.129968746352301	1	-0.04334420770812034	0.02557041374046869	-0.23356460660342382
