219
config_type=vacancy dft_energy=-23080.488315078095 dft_virial="-9.34787838770956 7.370828175293941 -13.06938466990367 7.370828175293938 -19.56998993222765 10.99608860536234 -13.069384669903672 10.99608860536234 -7.960334019563912" pbc="T T T" Lattice="16.351297224174626 -0.09637926842343798 -0.12973754931651799 0.09798177407418399 16.2670675649196 -0.47269011067463895 0.08388626518700999 0.5161703405249819 16.404523304717262" Properties=species:S:1:pos:R:3:Z:I:1:dft_force:R:3
Si	12.620454762377433	15.161247094153387	14.611155960547718	14	-1.5838044767586648	1.6725898856740185	-0.6247503106374616
Si	1.1131609277725363	0.8637996020475248	0.9340367706357829	14	2.3431719484168436	2.085252032447253	2.165530425189832
Si	2.529597685158601	2.6534125044067496	-0.19964113509584527	14	0.18102304094406974	-1.509439626252426	-0.01839343034980734
Si	3.952452641196888	3.9176848094150905	1.2016257805331063	14	-0.1878231002947974	0.7708060621169853	0.2841359342559484
Si	2.7287188235228776	0.0281517727380032	2.627906501202325	14	-1.1986698690955955	0.33140364868261474	0.7560684864218966
Si	4.054903443784836	1.4395373669045224	4.145194825945287	14	-0.21449703243867363	-0.3438452273268113	-0.37298047859366523
Si	0.1702793070705441	2.5616265404455008	2.413295019950786	14	-0.3669098418222636	0.6693515317366023	-0.40663701856599965
Si	1.330764843045366	4.101933714214535	3.94531331500183	14	-0.33014097885988997	0.686517773517103	-0.6144149814715303
Si	0.07788340983610328	0.1676776882028534	5.310124862286157	14	-0.24981116401090753	0.36197331960757934	0.6385489186696323
Si	1.6453612304345213	1.4854475185885476	6.674529242318408	14	-1.5899926130431974	0.43349787006665064	0.1393976171424684
Si	2.753425209111777	3.0392190102435443	5.371656173645261	14	1.0411014793240447	-0.7305518087826189	0.27024373799012436
Si	4.360751458488796	4.3394266868649405	6.624508173077265	14	-1.507216648592626	0.03960067836198474	-0.17057201203873185
Si	2.9568093395490074	0.3057302795949259	8.147792812331742	14	-0.4101550619755583	-0.9642382857782178	0.00986481689234415
Si	4.289147254467862	1.6732889794233896	9.478210990889396	14	-0.1344991472865223	0.17998097195781376	0.058634571047040965
Si	0.10218262817292528	2.9173484555043108	8.002741522791515	14	0.9361355904079354	-0.9231149988456414	0.04798248170566748
Si	1.40239848084356	4.348263360881911	9.262796621602638	14	0.7419569748722639	-0.14963832963261817	0.6385923703495427
Si	0.1474861170034538	0.3653026095564846	10.780758652802852	14	-0.223965384890651	-0.7508028627262334	-0.18765443578579566
Si	1.4265963161698245	1.6867418508404177	12.21202349308786	14	-0.10829367053197701	0.3079256004516825	0.06583623704877575
Si	2.703868539467381	2.9256912961472765	10.69752156592538	14	0.4638479685972746	0.6758518002070006	0.360509332238287
Si	4.074197284777848	4.274566088255921	12.165297371689833	14	0.2567330937538102	1.0200014464037175	-0.5620500507476704
Si	2.7976772580102343	0.32286073795943104	13.526603029060691	14	-0.9549355125088581	-0.340767357148062	-0.039993800365435386
Si	3.983930430765113	1.7851765780424145	14.756704353881647	14	1.233158161638998	0.7250889813089004	1.7156201614225486
Si	0.09306469806215009	3.1195486940118067	13.677408622054978	14	0.39668581253489854	-0.1914015646793795	-1.5077002735033458
Si	1.4450872691276162	4.57906341962568	14.831732687323665	14	-0.14115959561836586	0.685110607575386	0.31119836041369897
Si	-0.06442563278953228	5.322761763989184	-0.1327365241771998	14	0.7753335214752342	0.326599024170854	0.23258295859219127
Si	1.3054763227506856	6.789623487448773	1.2167285786864637	14	0.3087817785232918	-0.043314639996938645	0.037652551860908545
Si	2.7275480132719245	8.113986483940394	-0.2755802804230333	14	-0.782501505997275	-0.5825034506799804	-0.32474988522460346
Si	4.115015392996136	9.311713924196583	1.0924689823597404	14	-0.009446240946224042	0.6415661107628261	-0.26995448864160765
Si	2.765241235471257	5.4761918687890265	2.661685031026264	14	0.09625806941783184	0.03792123236686402	-0.6995591910324901
Si	4.378220405291776	6.813808241096256	3.906444376922001	14	-1.4712517702638628	0.1478588676405437	0.22049285004525895
Si	-0.08200086823261189	8.154435034733101	2.6445398557731292	14	1.5333565621615073	0.6808520858336247	-0.32233818843430456
Si	1.5339723708190451	9.709537587204125	3.9328006892472294	14	-0.7224649112191573	-1.1321103801202623	-1.1000073019823613
Si	0.05788969902827539	5.730812029384241	5.302040384799128	14	0.9989181256679713	-1.360756462246243	-0.35525964939560867
Si	1.5037651393024831	7.013743713964687	6.513008119192145	14	1.2314054391422529	-0.059088371136047105	0.4928302390975798
Si	2.9668315407055608	8.359413494771838	5.1896327894485355	14	0.030264480723463032	-0.7220383648465447	0.04440864531066165
Si	4.264172694463939	9.744257997900338	6.567877585631718	14	0.45594284817994735	0.07910365472180385	-0.9500758663432463
Si	2.90321533679064	5.634746721251562	7.978811861880272	14	-0.5012338968364838	0.2906207760944259	-0.6133803686907028
Si	4.124831557711879	7.091643475899268	9.310456447823702	14	0.8930600632057704	0.12317394257233402	0.3381538285901315
Si	0.19149124921490848	8.3100988361849	7.919502800704194	14	0.256677814989427	0.4925415039701272	0.38776022041600444
Si	1.5276081340917966	9.790971037619585	9.267767659539645	14	0.2125828445278234	0.17368382080770706	-0.8968323889314918
Si	0.1356521033356489	5.750064990131061	10.65062538270319	14	0.25184773653499676	0.16337060314752908	0.8801384591983022
Si	1.478821648285667	7.2469589776535095	12.099418037345695	14	-0.469741199101586	-1.5109036136217182	0.3521473264055694
Si	2.7978718479821105	8.45324510625256	10.708215838329336	14	0.6244147813931823	0.4015421162635942	-0.5124148625422118
Si	4.222231197080281	9.761802164356313	12.073916939770813	14	-0.17565431592506855	0.4412240415536957	-1.2412013504120172
Si	2.9374827943590414	5.884235593344694	13.534746374102237	14	-0.6096980316511866	-0.007598387552633618	-0.7013558794302096
Si	4.316558277144856	7.24786815432883	14.886901397165367	14	-0.7361161949164835	0.1540189788770865	-0.4039360724271841
Si	0.04111081078102569	8.56969330513682	13.387364910529037	14	-0.35250136760815376	0.3868197100898943	0.22831209554489326
Si	1.4640082822753528	10.014219697286675	14.634240217967697	14	-0.16236401541469112	-0.7774230587689186	0.48363056715155794
Si	-0.13202030226390718	10.679194133952358	-0.34980409061998397	14	0.08600398718001727	-0.20081900924601787	-0.3068251673746592
Si	1.1784368696828726	12.077828361726512	0.8849461357979813	14	1.7668905726116217	0.23743617699450276	0.07164642085124637
Si	2.529399824767029	13.48963420482389	-0.6255936779035228	14	-0.5420818183892724	0.47281032752224683	1.6124926128103452
Si	3.9599369966698106	14.743565442755376	0.9604895603420259	14	0.6963509658140093	0.07594042384642569	-0.9596439776816453
Si	2.824936206171393	10.813139078207007	2.28300149928605	14	-1.7019909892309757	-0.059061374530185555	-0.4522432847347863
Si	4.1103713970286675	12.04008608323175	3.6325418218027075	14	0.920190623654505	1.50457432365511	1.264395034394541
Si	0.07782617749143378	13.605178132662372	2.2071800890678968	14	0.277514823835503	0.0040039823150666036	1.4151795627788812
Si	1.4626984791873452	14.918837045490948	3.6570094667538426	14	0.8259225897544679	-0.038347007407880544	-0.686448610783991
Si	0.11619474135786659	10.900572113553679	5.322303905231827	14	-0.30188941649157086	0.8713324234767952	-0.5668824431968889
Si	1.5202578658263852	12.383581534259305	6.415606844613895	14	0.205942965038541	0.014394076024317005	-0.12586563273199705
Si	2.965343499744154	13.617106988501343	5.044826781385463	14	-0.3697843375701892	0.20367525014617038	-0.3405524127432976
Si	4.345977337514826	15.03956458854664	6.444244274676666	14	-0.17234118960952574	-0.5593629885775837	0.0007566762957195798
Si	2.930834031118293	11.180814377252505	7.781693855579429	14	0.23929122948298961	-0.11146075806533542	1.6800237224861625
Si	4.440840766409447	12.520569604040524	9.305957985532679	14	-1.6444028580492351	-1.2315321946345361	-0.011983407676146167
Si	0.07918667208472019	13.785991461571799	7.522125549985074	14	-0.16959653468026764	-0.22576618705688264	0.8268078213161948
Si	1.5032598594595439	15.096494419394316	8.777396024781828	14	0.10610128902548674	1.373192898679799	1.0657941177082149
Si	0.0920443271171853	11.228974577686966	10.392371785826386	14	0.21944975261687488	0.5817958824958758	0.7708577413339205
Si	1.5582061807619592	12.605230958695344	11.754078069609932	14	-0.9137366350798694	-0.020816182892982878	-0.09881271966393097
Si	2.812505340909178	13.89510901470882	10.27572245613086	14	0.7306160864156228	0.11558146856193675	0.7127391911246331
Si	4.266622238815794	15.202781424284968	11.714836303684828	14	-0.44415690139238856	-0.4517162081441559	0.23331006717672917
Si	2.8371021674382817	11.216852767085964	13.151163753658315	14	-0.5837046710855537	0.5955510388481359	0.6734226199005248
Si	3.9938070982452207	12.609896212390833	14.637863842990201	14	0.6308656846414338	-1.188170760520771	0.21561160659495782
Si	0.14585090715575377	14.121999286706739	13.046404034765414	14	-0.18526665027497413	-1.405623021414423	0.7123075025413803
Si	1.1527003018899225	15.587634602780554	14.634591788084952	14	1.6641682301978733	-0.6937970868995063	-1.118494834786886
Si	5.215747090716304	-0.0201768543107703	0.053746077274203594	14	-0.4245288262678461	-0.44151637622859646	-0.6759523304250183
Si	6.675713134248143	1.260593082851016	1.3061385827390042	14	0.5898382999372989	0.6120148546551721	1.3508872744748546
Si	8.14395661002904	2.5517024518798097	-0.0798162278760847	14	-0.054867130421428	-0.32609097375959273	-0.22255976161212598
Si	9.549833182218658	3.9741813096531255	1.1521230728136842	14	0.19798513696215067	-0.5062246693734233	0.748452358242554
Si	8.193949880702771	0.06904346539943709	2.986212047820501	14	-1.5966358349693959	-0.8908404279828868	-1.8719073694130697
Si	9.661133740502358	1.4095018324219688	4.015406585123491	14	0.2985086701061082	0.9510148340061643	-0.17606980654480447
Si	5.297541922508106	2.7635487932788876	2.7036935720136768	14	1.0033545678978868	-0.7195809023815473	-0.41885722504213146
Si	6.852489130043599	3.944418855215138	4.05248333321024	14	0.03137931199027925	0.517334672572315	-0.2670632807091011
Si	5.554578923258221	0.10257671374622099	5.525403509155558	14	-0.691673868126128	0.1670341711182081	-0.2362195299570087
Si	6.883654594530914	1.4509625781104025	6.83170724808918	14	0.869887462286872	0.8676721979430323	-0.2651328948347339
Si	8.352223477071501	2.7532927571141133	5.371468124512775	14	-0.22352058367026534	0.4069833464526236	1.0999936751241643
Si	9.721932477849691	4.380035488222722	6.697199791646921	14	0.17325778865615854	-1.1302411865525146	-0.29885911176124436
Si	8.415033522531505	0.2526677200370609	8.133466738856043	14	-0.027567391242627703	0.30899132360688386	0.3779046595028129
Si	9.638873628845618	1.833259923614033	9.552835427499033	14	0.017078567089083615	-1.1229618731701114	-0.871366104956489
Si	5.601535609244775	3.061017992723233	8.021405807993162	14	0.5247276288098689	-0.9278733434616395	0.9396425780646175
Si	6.898100038325495	4.43520092764473	9.484382272854617	14	0.4570021435718483	-0.21537557912656824	-0.8697936169426865
Si	5.586900481107859	0.28651002304506007	10.890662741876618	14	-0.06557706963250481	0.7104881884168435	0.26485830078654216
Si	6.877257653606711	1.758825171346729	12.261977518725248	14	0.049606648936405026	-0.9032591237897339	0.2837551535580345
Si	8.187840736711765	3.0454393485041953	10.853949010376056	14	0.19763726641233464	0.581558312364294	0.22381368967676218
Si	9.570683742986681	4.453557793395009	12.191861355665718	14	0.1329402861309165	-0.26991129407222914	-0.1450010840771991
Si	8.146239362976427	0.29993673110452473	13.74649133249076	14	0.24079841142166045	0.24411847972156764	-1.4323301208169288
Si	9.577353763955449	1.5880225971249209	14.97527958380401	14	0.4347836798372567	1.1017476831735695	0.5499316600422165
Si	5.5642282965695	3.1703530287699984	13.586862147158284	14	-0.4342586601308825	-0.7433042340600216	-0.17186707778849042
Si	6.939070221059619	4.500602780713339	14.924749964300231	14	0.6089524111083437	-0.8661115370137024	-0.5467041515338346
Si	5.367299974610988	5.146267024287531	-0.2963687032168434	14	0.005941567284330196	1.0219315751675526	1.7284733740285008
Si	6.822340766081554	6.497092621744481	1.176674113467052	14	0.06765529406278051	0.046678931308352406	-0.4471057020840664
Si	8.164292079695036	8.024161136586537	-0.1230021199538417	14	0.41798844855445344	-0.09259450144715284	-0.7370199384365155
Si	9.633771774120794	9.582172727376621	0.9340989086099956	14	0.533863023122887	-0.5626866564249391	0.01972654845830412
Si	8.200106445779362	5.2160904847843215	2.642471315315789	14	0.47698271723578317	0.9478120081088558	-0.2061671654224579
Si	9.595509498894462	6.828055824499266	3.9047617459887176	14	-0.43115790711478397	-0.9790367966693942	0.20187084843249048
Si	5.533074278551118	8.044244783935987	2.3654634966957135	14	0.6779649916696303	-0.00855792405811288	0.32566211339219203
Si	6.977625198848689	9.472733037899602	3.5800515856915376	14	-0.2999328053429382	0.2196029904939557	0.6895671044267986
Si	5.771965355621307	5.6168428086290945	5.3374394075821385	14	-1.097191170325203	-1.34654030671008	-1.433439809873105
Si	6.832112780131409	6.923947800388089	6.709632292118984	14	2.1911283497572267	1.0071703453035186	0.5164733522900655
Si	8.194030005985308	8.215882950389972	5.209359961051188	14	0.2305677262422592	-0.03776259516861088	-0.11284015606959487
Si	9.726558486508834	9.558560297175832	6.428778459937119	14	-0.21006444686673836	0.03280421855870531	0.7951235762349459
Si	8.396526217475238	5.711375925134479	8.049977829662025	14	-1.269622091510402	-0.20671223975032926	0.02555961509812407
Si	9.674983967912377	7.0986323627883365	9.33283920021902	14	0.49164547376605555	-0.0314844701978733	1.0476858229384118
Si	5.632517930229146	8.437527469196468	7.902625799866082	14	-0.9155680333994107	-0.19291183194443445	1.1570290186620733
Si	6.9980391585873765	9.777570492917684	9.285050192419988	14	-0.7852135078889673	0.29833434916540214	-0.41091276671340593
Si	5.505825141649046	5.731158693871953	10.777579804858922	14	-0.5995079699358438	0.5300811843074813	0.41434904897378383
Si	6.956238289250621	7.178469848392441	12.07336423884229	14	-0.24872538623420898	0.29330089628014827	-0.4655302428082475
Si	8.375005220669658	8.646345401957605	10.636755532775	14	-0.4542209789470442	-2.4051109040213388	0.6472495390730134
Si	9.577644831308339	9.87658081398607	12.091416955560899	14	-0.04345219413156656	1.140889933456972	0.608348715579173
Si	8.240898390640087	5.851840451051909	13.517643714305144	14	0.4144619204973383	0.46435910433492006	0.06385854283651785
Si	9.71111883512685	7.290084366966901	14.768981509418177	14	-0.5852468200565785	-0.6705900331693176	0.6439400123049188
Si	5.584763261836915	8.601553733809407	13.419684833168827	14	1.083265806800749	-0.785590946149965	0.8872372809872311
Si	6.912404854073175	9.961255250319672	14.905637631600314	14	-0.011578972809286875	-0.2907663006555462	-0.4653116988560349
Si	5.331632777412956	10.749620986882949	-0.29322582988956397	14	0.3255736673691789	1.3131791867390306	0.2526812888797888
Si	6.7307117822656854	12.44725333530905	0.9972899579645145	14	-0.13632951716393568	-2.06606927276416	0.13058901031564107
Si	8.192886994301766	13.576682965856351	-0.34924811927176597	14	-0.14414336334239772	0.5744821163021824	-0.5922561673803661
Si	9.49243568135454	14.964730845076497	0.9682306437610376	14	0.4878916599986393	-0.0830335892036502	0.6923045602611603
Si	8.229962107178668	10.899113506369531	2.196601916563125	14	-0.24089148543424976	0.6601017232368376	0.5710782299688384
Si	9.64816979682979	12.09676245655303	3.733663198784476	14	-0.6152027681416237	1.1908544802539416	-1.03903996707835
Si	5.38847103650916	13.623075504445449	2.4932044547881898	14	0.31737209850843856	0.010117299434782692	-0.5848860939801616
Si	6.905955586433846	14.857897680096713	3.8443783519426997	14	0.1905284173126572	0.6665425991743406	-0.876715803796121
Si	5.700871337072854	10.9511409780938	5.004721624660772	14	-0.24887091079532933	-0.6384689572941757	0.3993191386037942
Si	7.110122982388125	12.176245101620184	6.522158753499874	14	-0.976968856660399	1.015879450354456	-0.23556595498462707
Si	8.36090480615294	13.578957542754502	5.101478626559029	14	0.28100612774973216	-0.4548113047285502	0.298193195483326
Si	9.78769734750449	14.928172458511469	6.43560219063157	14	-0.7015633676295455	1.037405515426332	-0.91572872748192
Si	8.469595569519711	10.952470403699982	7.930681095223071	14	-0.5357232178220142	-0.5805658657107169	-1.1105532046740128
Si	9.559438404864046	12.44407448736512	9.211123990415318	14	0.2583189515152775	1.3746396596434465	-0.4620458808783829
Si	5.702764910076491	13.705369075240798	7.923870446207401	14	1.2370605852939185	0.7253738597783729	-1.652894190479556
Si	7.083024284792041	15.31764183440711	9.052565867533087	14	-0.003730159598470832	-0.8889475802461936	0.1504148034393029
Si	5.66066970296715	11.101716006499561	10.724702024013848	14	-0.008989869751897759	0.04828252969652876	-0.16819502517025495
Si	7.0469891653782755	12.54818829836818	11.966316861372459	14	-0.6535608313023809	0.23526719254642584	0.6308746835100543
Si	8.331614927360938	13.942570980538314	10.51520874958561	14	0.02516469332094932	0.02563751958932456	0.6590074608125825
Si	9.807766277965312	15.257009888464243	11.930664381063055	14	-1.550518433062964	-0.17942998408770602	-0.04790843387244721
Si	8.304784404179877	11.364940641313373	13.603745688835787	14	-0.16390976393316414	-0.9802290182063469	-1.299888629118121
Si	9.68546075740659	12.829447662592274	14.66319487874092	14	0.6188169708901559	0.2425930429351238	-0.0003517272077962572
Si	5.405258100805649	13.798847481394418	13.320288602576383	14	1.6712513682443493	1.3046323184337945	-0.8161585601906733
Si	6.852480953994361	15.413185510598373	14.675490021585778	14	-0.8681483666483237	-1.0869028923866304	-0.1363973943443876
Si	10.879039670279166	-0.14771341117228406	0.057701649895789894	14	0.3133704301881601	-0.45473211468468966	-1.0415681349396517
Si	12.36965772240614	1.230107865660345	1.163304637752257	14	-0.2713701392308812	0.15562257726526285	0.39662899110732325
Si	13.558999806563325	2.548960204965217	-0.35542921249607196	14	1.810900439487128	-1.0903029220619944	0.7346609493052797
Si	14.947971579347419	3.8816578660505643	1.0828294203075493	14	0.22525607976136527	-0.28747220051937256	0.05363428542041698
Si	13.642894247799573	-0.1625611165894001	2.585438466247708	14	0.18549445020633926	0.8875537840521414	0.4566776700804457
Si	15.090146534765543	1.4351419228339048	3.7148844488934887	14	-0.46108145927279526	-1.0420291341235541	0.8894075509879681
Si	11.066648931315635	2.663827155926751	2.532850117545676	14	-0.5495315960544015	0.11414782023542216	-0.0709331962354373
Si	12.382302800158403	4.108479459234879	3.8653204844621936	14	-0.07201588868575165	-0.2023948396967366	0.07560797992853054
Si	10.880256266405853	0.08453707870639458	5.381876235193386	14	0.9892029471052598	-0.6913715061404785	0.5867594013164216
Si	12.361491484426725	1.5624331982182638	6.502436487526765	14	-0.03959322215655631	-0.0026598084536931877	1.4222385324353477
Si	13.860525961639812	2.82523708478337	5.178645814481839	14	0.07008524570085245	0.40300893184873876	0.30647883948803517
Si	15.301301182399046	4.268228014886235	6.608013811343516	14	-1.903014658460477	-0.3117758306686043	-0.5870468508912141
Si	13.65803956140897	0.21248407323968108	8.069232425618692	14	-0.03309603901254212	0.6704285677552123	-0.3455586119121579
Si	15.10278997730796	1.6230177230755487	9.350152802086468	14	-0.29929979921311767	-0.5458541441149937	-0.20187856174845092
Si	11.129789289164874	3.036419530984282	8.162416493999725	14	-0.04841314184679228	-0.24131854602792638	-1.058206014576862
Si	12.567094594627285	4.340190329863817	9.503044922846417	14	-0.5386918160246571	0.24018571702386912	-0.888728264962385
Si	10.79687691627163	0.28003132162847266	10.887720999360605	14	0.4959901275360418	0.701432755479282	-0.5609619589761838
Si	12.178365968792653	1.674992868084693	12.11627214524594	14	0.4754120289957047	0.13182956863261253	1.2055136372367659
Si	13.742087712370902	2.8321016957240146	10.80132795747707	14	-0.018680622814067883	0.3236036864728815	0.03153743496746835
Si	15.115816058954739	4.301202021465106	11.965082277937444	14	0.80585485562018	-0.4052031131289531	0.24676286154333993
Si	13.625454734773852	0.2709199323570883	13.491334823065499	14	0.35286672167414684	1.0115142277419087	0.6373713524330045
Si	15.40564555799063	1.456811723735625	14.851240740806727	14	-3.3213903622628345	1.2360681386403414	-1.0580579189104211
Si	10.868105022027594	3.110609001774431	13.627971322729461	14	0.5155531536959845	-0.465868086047315	-0.4650324768182669
Si	12.44898829295746	4.5073202227676905	14.782918402950125	14	-1.4655002076626913	0.0724246944316552	0.05477148530351848
Si	10.915880948147846	5.358561413184879	-0.10621996128689659	14	0.5868046527700562	0.4547154025001086	-1.1713035382890034
Si	12.324208699899167	6.80902034666219	1.1764811587050237	14	-0.6595077979078833	-0.9388149392620616	-0.034574938792691294
Si	13.542466199793228	8.060395751601721	-0.29010421429030464	14	0.5738802205467357	0.03664699257019863	-0.2792991709276858
Si	14.914523361912716	9.380319153356837	1.1329633190281834	14	0.1586410549111167	0.25686910522524603	-0.48716429430356956
Si	13.686935354627677	5.375628098365324	2.4388909596968342	14	0.5061719617143603	0.45465935240412936	0.35021359809428604
Si	14.980499173637869	6.822600764447339	3.9485968163760115	14	-1.006762567999743	-0.1302455106448693	-1.3221024648631365
Si	10.87323467531983	8.090447638182752	2.4760118584494717	14	0.12907642905579797	1.2290348800370765	-0.7180693495638322
Si	12.29907388933017	9.56600540761241	3.677333489950906	14	-0.14241789456204637	0.0435275275174469	0.30852646776500114
Si	11.163777125849318	5.5766591618317145	5.2326224563445685	14	-0.8963816741688698	0.014530087495752837	-0.040757418645519364
Si	12.464511340041673	6.972955039523659	6.57129680942326	14	-0.59030932643195	0.5141984383027984	0.22166733095550262
Si	13.67260764594213	8.352694417507639	5.095421809283148	14	-0.11039349224694193	-0.66622095389879	0.41316222675800346
Si	15.060088107345122	9.49025267620786	6.5450337040593505	14	-0.043205368020832344	0.8140119443588819	0.027481259214402746
Si	13.811587401317848	5.625063008533482	7.875901565325121	14	0.10030267519695678	-0.5678844029401504	0.5711702755392998
Si	15.141776650496823	7.014198302302347	9.184806923126434	14	-0.0025952737101574714	-0.19136094121532116	0.2213387436955877
Si	11.069469668302915	8.379313998618349	8.021363292537123	14	0.045138067889987664	-0.7818993531312963	-1.459971817003309
Si	12.329819104886626	9.686791818222618	9.389590793193294	14	0.15076755908922723	0.5397079168471798	0.29420901067922456
Si	11.061576510368068	5.65349603736529	10.771043871097666	14	-0.2783411770853987	0.6541694119316599	-0.24878297899338028
Si	12.465848941697093	7.118982549342964	11.988366030958845	14	0.11749462803065892	-0.8002490746906611	0.8718031928609142
Si	13.885861903020077	8.357837152478655	10.640178026986234	14	-0.7815543107973324	0.24700608810662594	-0.5867306049368359
Si	15.071575456525215	9.961677134460379	11.766131201397329	14	0.502524077486134	-0.624114990512853	1.1383108577103314
Si	13.937186234509836	5.62652161571763	13.404235370527758	14	-1.3508867602537904	1.4062233745066774	-0.26521696997870275
Si	15.0539544352064	7.112978058782209	14.832636958369443	14	0.19980290842349535	0.8328046673649081	-0.7183136045692462
Si	11.018485460461477	8.526700367821093	13.268473708132312	14	0.30570416545507456	-0.573710013374542	0.23954756868340837
Si	12.287828551207536	9.85553566324617	14.676451524976226	14	0.07488755621782504	0.3197863664040576	0.21344570747326508
Si	11.06191663401639	11.001229090938699	-0.49629436482618844	14	-0.24545776848283277	-0.897793725210695	0.9388010552933329
Si	12.43252827063051	12.263586565215384	1.0043344419884062	14	0.43999839564758103	-0.21938496076280717	-0.32575724428903746
Si	13.943344434796275	13.555585488401325	-0.47755813039124184	14	-0.41558857884862727	-1.68904161728605	0.46594881875436767
Si	15.26895509640169	14.982183439780998	0.7145850682350522	14	-0.03775385341052238	0.22839925601524633	0.6408523719259529
Si	13.800463068723944	10.935107745537103	2.542358862810052	14	-0.3393686758539014	0.33362328390549856	-1.0065121423415604
Si	15.192188534891566	12.393729646574132	3.831064473362726	14	-0.1785408958679988	-0.9926729108453315	-0.32582949234853364
Si	10.94024393966873	13.577768745195225	2.2787352367934006	14	-0.455468222137848	-0.4944194392959633	-0.054938092928264085
Si	12.32099878296813	14.862100169405302	3.60981076970983	14	-0.16188758959886765	0.959206632666688	-0.31552810177282836
Si	11.045113217621426	10.951593931221613	5.098566317820275	14	-0.07925097905664835	-0.7810074366957369	0.04519386087543487
Si	12.29453781721265	12.251513810909815	6.512322966265959	14	0.7299427139322759	0.29169986899729206	-0.029401360667489326
Si	13.58759145075036	13.627675349747028	5.0554523749758165	14	1.023224584033055	-0.016794202840675235	0.49119655877715773
Si	15.08900515829185	15.117923844448423	6.226983753471852	14	-0.45849132777327817	0.1304365437701563	-0.7465134877206304
Si	13.657082963648067	10.903988066925525	7.886118356453551	14	0.3154113735912936	0.2165441464945755	-0.3768610478533648
Si	15.061448601938409	12.477444214727134	8.927683256254392	14	-0.08879389356290995	0.16852798330921412	0.15025745179370986
Si	11.058415649732463	13.703804179416549	7.852807496646054	14	0.05927297649803374	-0.3465258617335977	0.361828566378055
Si	12.31541127091854	15.29669643146792	9.029107147057983	14	0.19389425128726304	-0.49710470169232596	0.03633897415284489
Si	10.770419220935844	11.163121406700391	10.55286926758799	14	1.9841998800494733	-0.7431304273403795	1.1149474807766777
Si	12.315375296301891	12.449822249979784	11.868704644723854	14	0.23160465301787495	0.3293760750271459	-1.5368812904448985
Si	13.694494929753594	13.896307623527184	10.307831436700296	14	0.16725785728106096	-0.6055130435215816	0.7878375779787103
Si	15.096468256036752	15.335321723280442	11.61630182868212	14	0.04119064989196432	-0.5402607044910116	-0.8631874189330979
Si	13.569363766578046	11.101626069957938	13.225057251466032	14	1.535208015102546	0.6017312047061758	0.09766523535954888
Si	15.11978961888465	12.564981903504059	14.500664831138629	14	0.0004093199669675742	-0.047136073834274726	-0.8114326115017092
Si	11.225061520521418	13.949451943577435	13.175008383657477	14	-0.6946856608981493	-0.04963441687386262	1.0311037362866489
H	0.1850141830081688	-0.14749592826254	0.060453708069468995	1	4.785386473313239	-3.675101949145182	7.5066633703373356
H	2.04354300439871	14.597618058218607	13.788069813288226	1	0.3932279329898314	-0.6359418178750023	-0.5164401850314355
H	16.27538587741485	0.5457496514600272	15.840599931009894	1	-5.4370362020311545	4.073106481598785	-6.802202367011982
H	14.343566950650393	14.01179922465054	1.59713071597661	1	-0.036746237235556346	-0.06636228519727803	0.12326804502705144
