219
config_type=vacancy dft_energy=-23065.26777460594 dft_virial="51.958571548120446 -102.0855161274188 -41.51403822823265 -102.0855161274188 102.82242651254955 -37.3524113711648 -41.51403822823265 -37.3524113711648 183.68236778964172" pbc="T T T" Lattice="16.248690290505795 -0.4468511411524886 -0.5776713547545511 -0.23620180802302038 16.601545408482068 -0.049673620830622794 0.2821832507499918 -0.2522391983763256 17.19577463684682" Properties=species:S:1:pos:R:3:Z:I:1:dft_force:R:3
Si	12.195402529725687	14.665821007266883	15.391600752303546	14	0.32444880879161414	0.04872527403265826	0.5518286215474218
Si	1.3687310857780193	1.283262855464112	1.32925405725215	14	-0.3086172277828024	0.7315239437041671	-0.6683976516628274
Si	2.6798365424660537	2.7438771276973606	-0.28143342955801676	14	0.24995077502979154	-1.3071838833535094	1.309815409648681
Si	3.9604530658708526	4.080320359935476	1.1798298202361825	14	0.24667287285713474	-0.2595975621909871	0.4850091938242214
Si	2.795074788564601	-0.09517361654495947	2.7868397675342984	14	-0.2403081016371082	0.09031470235977752	-1.226715485927771
Si	4.092141835907871	1.3727062766526115	4.023288407060395	14	0.6137331243406271	-0.5088675085320034	0.8624659667802644
Si	0.12070006727566655	2.81075109365843	2.757474752783936	14	-0.4646984902371797	-1.4125938021584084	0.07310192357298219
Si	1.376152851719412	4.013114585898131	4.306680154872507	14	0.3848191330402871	-0.18047976638992247	0.07606357979126077
Si	0.08287069355992899	-0.07924845539392386	5.743482318102471	14	-0.41765420486283417	0.1429760815270505	-0.27343550813455614
Si	1.3729160964655502	1.285349668022255	7.164308898365888	14	0.8664547795739421	-0.750099922531705	-0.08759807247850909
Si	2.7963987678493463	2.595150663547678	5.67116279606606	14	-0.7859861250376716	-0.47951114220761676	-0.5283649715062824
Si	4.203486216640717	3.7651531092894714	7.034905375128705	14	0.5059791288153491	1.139138753623419	1.0871132088018185
Si	2.904283561433969	-0.3716998648964933	8.44253445180929	14	-1.9740535271245727	-0.30967883716949146	-1.0216801210672422
Si	3.989678200745922	1.0458932131334167	9.734655281701809	14	1.6796097745296186	1.135511181127222	1.751981761302211
Si	-0.01460280837646796	2.5351324379861198	8.644464063875466	14	0.0453262727994225	0.653077977723257	0.07343796703832554
Si	1.4756838890307513	3.9238663459309695	9.985359054470273	14	0.08526376595834664	0.47606483263649024	-1.2154954394211768
Si	0.14692266436248058	-0.10407388023799051	11.482438058380069	14	-0.36959304733437015	-0.5176087523994428	-1.0402872102691538
Si	1.4763588907545466	1.2722692731722263	12.692677112900775	14	0.5971134995511899	0.08784284170498717	1.876720992793451
Si	2.8641022540011036	2.628889364166198	11.290571664784066	14	0.003682851260580108	-1.2117729931386663	-0.26833597784257446
Si	4.404010523913255	3.7606249049544207	12.600489769042293	14	-0.8470025680532979	1.1657445514763114	0.489567763556844
Si	2.959625570234295	-0.22428599446031106	14.104652224776494	14	-0.4275635018772169	-0.1860192128021815	-0.8090656519439811
Si	4.273862059014633	1.051429853778716	15.51541396005956	14	0.493737067943996	0.5198204171958343	0.11691972888107381
Si	-0.0181274559318039	2.229491657451608	14.706324363714957	14	1.885056516241371	2.528407745427976	-3.994341698558176
Si	1.5457555740014146	3.7501013841039255	15.690693202862153	14	-0.936946774136442	1.0105258948568439	-0.1757036811472154
Si	-0.06189521830676227	5.479094715208007	-0.029423569116763797	14	-0.27680751276193033	-0.781720661311546	0.10157871476734628
Si	1.300258260312153	6.725630970856944	1.4846833698446291	14	-0.3089216466527079	-0.058759526765600166	-0.10459719241320012
Si	2.4710170332866332	8.117634164259211	-0.028371217031714257	14	0.09198489237574574	-0.4246375840228884	-0.7509658708035307
Si	3.8485101293925688	9.423542920929112	1.2676483577570397	14	0.9387915422036484	0.7877164789181315	0.34202848430759464
Si	2.686863066434236	5.306289394385878	2.8349373000026135	14	0.1807759577228035	0.6017918827917312	-0.48499376719230053
Si	4.069666718270755	6.776599293789111	4.112143031564523	14	-0.18866667995033798	-0.44096333147423267	0.44897078188330175
Si	-0.035129366820556354	8.112914031723179	2.9052741061322616	14	-0.14810106576170165	0.19787612209657637	-0.09466604100359614
Si	1.2221532415732366	9.542621357557492	4.291908189437546	14	0.4423273028465711	0.7324356576506915	-0.5138839921221444
Si	-0.028525735498607156	5.263978985130246	5.695550689672293	14	-0.03241135366578668	1.0756458219634262	0.31158299776959314
Si	1.34080390602485	6.68865714149474	7.055170065434165	14	0.8682409264398491	0.3368330517871714	0.10818928365597899
Si	2.717452843348497	8.177899619367798	5.555737501297064	14	-0.6842027502868416	-0.6900288749422971	0.20390639251445172
Si	4.036365548890068	9.536216160477236	6.906220769390121	14	1.1704828414708124	-0.3853279547831444	0.5537173555156024
Si	2.891749674003688	5.359170493287161	8.42506085296897	14	-0.8303860285902449	-0.8493206766099434	-0.08975111607360108
Si	4.264909746995912	6.678563019331189	9.802547443034195	14	0.033398143887659514	-0.4277316521651546	0.7305543798879393
Si	0.15776660771800652	8.07288398973685	8.66508333339969	14	-0.06515695102319262	0.764808187626144	-0.5167127221953713
Si	1.4181038022257453	9.690175107868965	9.995175043393417	14	0.30369201843152666	-0.8724541967279756	-0.00980388169625664
Si	0.25630872684123124	5.160243419009242	11.539156094790831	14	-0.7718437602241972	0.3620933902260302	-0.09167173174775169
Si	1.6612605677691241	6.615044543866962	12.71736916391026	14	-0.47309057800214305	0.35706687932514075	0.8202980397561118
Si	2.9155129877016384	8.131059379266938	11.232150672217127	14	-0.64538343083165	-0.2639666414615148	0.2124005531606249
Si	4.042479600648493	9.372693333239924	12.89384551820373	14	0.739892377300185	0.359988426300425	-0.7783190889729902
Si	2.895965588384598	5.128734663844512	14.203015427780159	14	0.10198777762378183	-0.14253333719092098	-1.0300084454202658
Si	4.135555019064065	6.531780234844001	15.61472053896636	14	0.5262458665014164	0.15661425258724396	0.3270245421013385
Si	0.08603262934561107	7.898494448001523	14.328248578921409	14	0.24748534213830153	0.06145507358324342	-1.1297164239566724
Si	1.37000626975743	9.236404792420032	15.718088513787176	14	0.7002310208526448	0.911267602640931	0.06414419263758629
Si	-0.06722854517983406	11.105494324670284	-0.13522155014324352	14	-0.7908637689405247	-0.21502770857675219	0.0865516326132088
Si	1.4262737628489353	12.412827904255954	1.1915650911691538	14	-0.8644513743084827	0.13691727184012156	-0.18484524611300188
Si	2.659775165932822	13.861373470969777	-0.263413323297949	14	-1.2362797406081898	-0.2080880382071405	-0.34884628428503134
Si	3.8341805747259747	15.08164158724692	1.220160766605407	14	1.1348198109066343	0.9126274602447574	1.0810721397415985
Si	2.493915043569983	10.89110239162165	2.613232577194503	14	0.626925722848839	-0.014323884849076964	1.1554948401175409
Si	3.7656443153631733	12.362863138103501	4.229149294226361	14	0.20024950941760508	-1.340582027241169	-0.30088771385884117
Si	-0.03046941516110206	13.746567876578533	2.5671014955311717	14	-0.10099121720169242	0.8428792864513764	0.7525026204533832
Si	1.173912576209273	15.282645715021916	4.11391430114817	14	-0.4686878172519214	-1.0749066291838836	0.3025319357110759
Si	-0.009604542600027098	11.116043869683624	5.684428613076361	14	0.06956613953671456	-0.6361341365529491	0.019937636205088278
Si	1.297493193009859	12.367495439089932	7.225150138077422	14	0.7009732989585715	-0.06586760453368155	-0.3210829748170083
Si	2.4588588697074285	13.808520022741517	5.535358955279157	14	-0.8707660089747665	-0.7544114090430611	0.18863171291798397
Si	3.947424719346514	14.848582196887449	6.886139874734755	14	0.6814046163669244	0.6835250069244506	1.208646014848302
Si	2.9453122806694787	10.85759465544838	8.495251273182614	14	-1.6400538334002046	0.5922821355440996	0.0024466638226529123
Si	4.192219380638958	12.153436940627754	10.011985026081186	14	-0.44098338609572973	0.10155788881425307	0.43140730433083824
Si	-0.14250668922969928	13.584743125966863	8.699649927698719	14	-0.40890910433741456	0.4349248335193328	-0.005755419259151475
Si	1.203506928894708	15.029329766907875	9.966576114936808	14	1.0594568573151137	-0.2607555880271818	0.47772396689958185
Si	-0.024830304374600116	10.935678529554988	11.610158143583208	14	0.11769440291403445	-0.2861591370323729	-1.230784002986373
Si	1.17703384924051	12.299980628118803	12.975616690883452	14	1.5727186419497825	0.18598193177503936	0.14974400206127628
Si	2.7519397386488147	13.533360042939352	11.481091307952834	14	-1.0724249983288767	-0.03459087964567621	-0.6489500681317594
Si	4.173483609900649	14.879032093926417	12.748404604613242	14	-0.048086611471133474	0.49364733636832286	-0.005310103817701827
Si	2.676669727149838	10.773865164514564	14.235485450459977	14	-0.31684039392823193	0.14679700114332256	0.5393646742869398
Si	4.198066684728221	12.131778331099904	15.579716413429495	14	0.19752336644665205	-0.4543240802703821	-0.5109357056515306
Si	-0.11750234826607243	13.746826491696805	14.35971992435205	14	0.4479521099554591	0.4290732549212078	-0.3248581287585818
Si	1.4052803959838125	15.190131442617693	15.61251987069577	14	-0.6915648532605536	-0.6024326022375122	0.12153794825712379
Si	5.3861331525048834	-0.04106612896959935	-0.24330640447973811	14	0.052827986792018555	-1.1912985101427311	-0.0998951550037133
Si	6.803950688939333	1.1369371203368912	1.1798460853379606	14	0.11352586985847835	0.6339322419567743	0.13477065600832994
Si	8.137484094469327	2.488972079139588	-0.3884203895244829	14	-0.5038564242630349	-0.0502052022549355	0.819100418897987
Si	9.388075239991569	3.915829759142361	1.0670589900773884	14	-0.07922449667185083	0.5258684282404186	-0.1690401474889876
Si	8.15738769951531	-0.28099427181000536	2.6537961145191558	14	-1.2100094719995766	-0.4154263421029259	-1.012526729016983
Si	9.466744657762188	1.114022844951763	3.822703918911277	14	0.2959167388328669	0.5657388155504869	1.5843935169875107
Si	5.414039187625741	2.6942392900906498	2.494547756029155	14	0.4268001407076649	-0.4456347727304097	0.47663099002798687
Si	6.829329127243858	3.9297884694884124	4.040726222676803	14	-0.8015204862714743	0.39014209238458963	0.15917301660185534
Si	5.43400622656866	-0.25976994049963215	5.570179285165928	14	0.7070367366350767	0.6492598863228373	-0.48093064945487046
Si	6.948418949443483	1.1665916538989054	6.8372730029523305	14	-0.7667486008112597	-0.32617813422994574	0.9918298454108551
Si	8.221397381053238	2.5590779208239858	5.4728033738401995	14	0.24428585867790928	-0.033906451409452795	-0.9256781337392971
Si	9.589445332556574	3.970360139363954	6.845867482731932	14	-0.677126040003666	-0.23954422624649221	-0.18453697058511614
Si	8.393719628352557	-0.1484288127871419	8.254423670213875	14	0.018340722690744306	-1.1693875506044291	-0.46235801306424884
Si	9.896603647086991	0.9996108660235486	9.706772017723441	14	-0.8234216756095598	0.20681816928951938	-0.2075555622953379
Si	5.622408153485906	2.3835839786779194	8.572287674734703	14	-0.6619184662560542	-0.09440301692934501	-1.574101382390958
Si	7.053636266336481	3.7796518210145593	9.725958331781007	14	0.11604606729328752	0.6557449852718467	-0.05689496118742878
Si	5.5020220026745585	-0.3117662178641819	11.121848884508264	14	-0.23035638138494305	0.31777987581221406	0.73032606573551
Si	6.902401723492599	1.002932199806657	12.576303562698108	14	0.25551876071110424	0.019249608421416653	-0.18715898379060314
Si	8.383462855171222	2.2706553770318765	11.066336092139268	14	-0.3754451401535592	0.060073618694727854	0.41271511154282975
Si	9.564419846960636	3.610532172255369	12.58855281084727	14	0.22790251846739373	-0.1239581296949792	0.7567446871210957
Si	8.261009409923867	-0.3293260217439266	14.096426962807257	14	0.004460610619924902	-0.8330761760867158	-1.1029972403591615
Si	9.68985143234358	0.7413698450910672	15.490177028140504	14	0.5647355702545651	0.44604512113950534	0.6795835024686636
Si	5.6199488700970415	2.415738458383243	14.010470779440006	14	-0.06167156065119988	-1.0379603599544198	0.1602693359103665
Si	6.894365136703991	3.5858319886949945	15.524221512672455	14	-0.06019960285541511	-0.18880423408496588	0.8978320346799653
Si	5.315672731601722	5.315523092665362	-0.292744181334577	14	-0.18509875709756848	0.7119858572658297	0.057394784061665566
Si	6.644560824063862	6.803194361706646	1.0262888859601522	14	0.02221357863448336	-0.24220300625805735	0.7395033690652465
Si	8.020461566705713	8.061231670822947	-0.492886258715328	14	-0.058865456304790266	0.4934622167852722	0.6462624917406086
Si	9.404611968969466	9.410695117034512	0.9352205811040104	14	0.0036360571437534135	0.5645301389394852	0.474652524484133
Si	7.950115001514996	5.378865905030383	2.5345192436490818	14	1.2951351696022315	0.3279565677798921	-0.05962804614274618
Si	9.550469269165472	6.750562118862569	4.03764723891019	14	-0.9196645755060027	-0.5567761995149828	-0.1563612558237414
Si	5.379871088320276	8.146831648461259	2.7117730698075495	14	-0.4525957832741786	-0.5807509852937675	-1.4356589308749246
Si	6.800442306485775	9.445500808329681	3.9430884432124462	14	-0.21032644249886143	1.4087456288257425	0.7984775831250791
Si	5.34851685162244	5.311977300477714	5.587950535368789	14	0.17198894818066543	-0.6035515472728407	-1.0955001543561418
Si	6.755017130239618	6.776496823647909	6.660660021803924	14	-0.07075604707887909	0.054017637223651056	1.8482076919035408
Si	8.097717547131806	8.225858898471	5.472489457375881	14	0.6304201120894521	-0.9209128471389346	-0.8933670531809962
Si	9.507960425668148	9.244454391290063	7.015855687926078	14	-0.5539143021831259	1.3430109504371128	-0.9484861519237987
Si	8.134831256369303	5.400356984009919	8.10207171487783	14	-0.3373351886561963	-1.066591417467993	0.319358534478785
Si	9.425499612673029	6.392277709912736	9.750804901257386	14	0.1574238936525586	0.8530559784190545	0.5225270197663541
Si	5.51186889529108	8.07271320616818	8.429571165692064	14	-0.7696148690221609	-0.20828292799040773	-1.9130581671725715
Si	6.654253198213491	9.424866900213857	9.823602617286074	14	1.6383188515301688	0.05904054857709236	0.549626212730183
Si	5.7374040495679575	5.157001784224846	11.201747943973315	14	-0.3718628191109969	0.6530489242331394	0.17876895290989595
Si	6.901268045898659	6.5441514712565	12.839751042709791	14	0.5217824276656393	-0.5308136922131914	-0.6971122700993052
Si	8.143546097902062	7.960862980770031	11.206620968466066	14	-0.475052074250884	-0.5704318540913532	-0.19332140902193404
Si	9.529444998606971	9.317901084879702	12.518642150384212	14	0.03298342459951963	-0.7819975693545259	0.40002182168779066
Si	8.267865150323379	4.8941317153262895	14.317053309367473	14	0.5539837220267698	1.3032205245025008	-1.9263901195891353
Si	9.714325530989239	6.31808119513112	15.545647531244878	14	-0.2590298621362984	-0.33091976666136286	-0.609895749650306
Si	5.500411757598517	7.957400140601452	14.129228793563353	14	-0.5136196824952332	-0.44874581016778886	0.31666838698231403
Si	6.929964564965937	9.335680467633452	15.373725405449303	14	0.1162872369723174	0.048224936937357445	0.2732035944346788
Si	5.218812424002363	10.789232432674607	-0.27014870194430163	14	-0.09147298530650426	0.31872578545949654	0.3834492481257122
Si	6.50570402367319	12.201505195912869	1.1873231526253991	14	0.146023098441958	0.30023285333379945	0.5316621569688403
Si	7.86457195173291	13.56555518539912	-0.3514351745910339	14	-0.09983833357613806	-0.7747182559721227	0.2737437836624419
Si	9.088875439761225	14.781451242318285	1.2188758235649293	14	0.6185421197314319	0.6804461083035733	-0.579249202676269
Si	8.11659807727594	10.83230242218328	2.5293388087327253	14	-0.3020169433154502	-0.32913876200609626	-0.7375038204577675
Si	9.612198583434097	11.919060077024247	4.01820393624453	14	-1.393177329001714	1.191194637487797	-0.564889579463242
Si	5.096066206922998	13.695737807011477	2.9084685721215	14	0.982921222587074	0.2150642182722983	-2.021615633110396
Si	6.702952539447599	14.987120201283268	4.134679956588397	14	-0.8986735574512498	-0.11989552617861322	-0.12324336241597802
Si	5.404120728561395	10.961435944730944	5.497981751392854	14	-0.6184148500180847	-0.734804159871612	-0.6562509787988517
Si	6.792404093186988	12.160552922655716	6.911171866371405	14	-0.21619550461316345	0.33896964030821447	0.6788805622741352
Si	8.059697871725263	13.408743339155496	5.29934907545712	14	0.07265995056844873	-0.40603126615257285	0.1956539157683724
Si	9.366408497912829	14.804814434512492	6.590744481810331	14	0.3505491273385653	0.7856120292135902	1.0723383520795877
Si	8.110306735908132	10.686243434725224	8.32832903967366	14	-0.3482788413408746	0.41214046950377664	0.26150917899651727
Si	9.344004946723537	12.184950575323015	9.717007646272462	14	0.28104443721900235	-0.5190881664006561	0.5417236634181758
Si	5.328710837187127	13.535398060192161	8.490588068502806	14	1.107660454078314	0.48302018674855485	-0.9134396724153923
Si	6.7675136079358085	15.131830811803912	9.708390395350373	14	0.10557678354017655	-1.0717613960457466	-0.14935370827367783
Si	5.540419028442355	10.72945167759901	11.44934020277161	14	-1.279573554652035	-0.3040409174234708	-0.6521734628716289
Si	6.863750962137063	12.199917721979316	12.56879721822747	14	-0.19117993540078274	0.03744892031955282	0.8519822848373607
Si	8.077857857860623	13.662947361826628	11.322778192815079	14	0.17421603960897772	0.012199380523038605	-2.311817833258702
Si	9.500514262074088	14.951977822381288	12.5579565278923	14	0.06381072027756308	0.45661647777382613	0.44070467827902576
Si	8.20301944255405	10.791820210367518	13.854013512415143	14	-0.11616973745918663	-1.038585395657748	0.4516534731743443
Si	9.545300219820362	12.017699786758142	15.259975416163462	14	0.10473166122144388	0.6481579105826217	0.9542243447773052
Si	5.622432551138573	13.501343816599144	14.119209490867982	14	-1.2376146584904104	-0.6474256597874435	-0.34801941681407167
Si	6.908196979256172	14.759346969001712	15.495536379176421	14	-0.5192396045040129	1.3027399849181653	0.6368908128486688
Si	10.737828205014784	-0.4620053364792375	-0.22025387572949529	14	-0.24455428207333277	0.3012242715452486	-0.3181282605830942
Si	12.095422575605271	1.052774977695773	0.9713437456432148	14	0.42008698471675826	-0.3563989061629662	0.5938132287622477
Si	13.530170456480647	2.1309039960434046	-0.6922557437616146	14	-1.1047538195138866	0.947278760865457	1.0340149988406526
Si	14.810804871497401	3.499454539191686	0.7900740658557093	14	0.5885280646661514	1.0359939786055705	-0.030848635852200688
Si	13.703135175300204	-0.47386747520607875	2.2981433990370346	14	-1.369565326183602	-0.23050756237776776	-0.7436094242615231
Si	14.962189053277644	0.86329630104081	3.615737004824393	14	0.8174417988559594	0.9953517454783938	1.0900283280138026
Si	10.686715122676791	2.502499764288517	2.449041254274107	14	0.8235579441915277	-0.09767320578604134	-0.6939778356035126
Si	12.122138005275964	3.8625892014917786	3.7359393599856467	14	0.6213407678724132	-0.5806777087921433	0.8104964720546434
Si	10.839753465307874	-0.38069934571037134	5.082331954981486	14	0.1376181551503939	-0.17802410369864904	0.8204659329335175
Si	12.114906541025377	0.9235292259458402	6.594451298505583	14	0.526414531010418	0.7554370229552683	0.3084256804364513
Si	13.593965438675104	2.3014858774524547	5.088436247678844	14	-0.7283398868756957	-0.25664850438877723	0.06957205307895091
Si	14.882981260638164	3.5862971706058513	6.624697881772324	14	-0.13027096458753878	-0.1649682879934691	0.5104309976771856
Si	13.506543769637634	-0.39508420172301145	8.159959212106443	14	-0.11739641180742927	-1.5329395288785794	-0.9628426898104414
Si	14.870128577213032	0.7605691712300544	9.576469034357926	14	0.43263140757376073	0.8348774924740116	0.4870758482805564
Si	10.855995795943585	2.4982139099699614	8.147802675037418	14	0.9769608862339066	-1.0695075651221047	-0.2814624989440584
Si	12.401520405499749	3.531475645062428	9.570694923226664	14	-1.1282735196510054	0.9330268669653442	0.42699554471199613
Si	11.175045526384045	-0.48766841406488143	11.048319238899555	14	-0.19119330514844748	-0.6821191265353936	0.14517540501790516
Si	12.49603528542269	0.6165595865960495	12.666690359789744	14	-1.2594831947909302	1.254426344847263	-0.3276313229568934
Si	13.458903286529285	2.113178288125522	11.123829973904847	14	1.5551114556068764	-0.00986430267128012	-0.35504316232765215
Si	15.040541301563588	3.3715295137061427	12.410895610164703	14	0.2340058082763612	0.05693018533031482	0.35330946601027635
Si	13.924205559138965	-0.4618117817680769	14.129406083172736	14	-0.7222006015922461	-1.5203038317827116	-0.9338707037314169
Si	16.193118943770397	-0.30857175187494346	16.22611595574783	14	2.628549726542423	-2.8091220527238714	2.9799167224833276
Si	10.946325665178996	2.05046981472985	13.981998718777264	14	0.2885934595494891	0.24384774233135606	-0.6995604765851502
Si	12.401455345092637	3.4615714906400803	15.172700133041996	14	0.032729399393889004	0.48457313436192423	0.5464560398704403
Si	10.92987839426088	5.213145662542837	-0.37730319245908317	14	-1.2669800236834177	-1.3665432489903002	-0.8892928796906895
Si	12.143328179872602	6.56740731377897	0.8790067628483734	14	1.3286353863711007	0.8509677266780301	1.8426798154652224
Si	13.476145920924356	7.919735044413675	-0.6138254229871342	14	0.15182402626527605	-0.6103127829332341	0.4174204913892327
Si	14.992947987250396	9.123567275343946	0.864670702141068	14	-0.9453280632590609	1.191869038413272	-0.3306747403243527
Si	13.619415443427453	5.001650544120903	2.2937518215569206	14	-0.8050536992024219	0.6226636015596294	-0.5399076917305552
Si	14.878653117054986	6.350713868828723	3.7836221323586177	14	-0.030479168017695405	-0.4182005647433656	0.0001758636038981286
Si	10.786278690191686	8.084848598604895	2.5108990628467796	14	0.4762216700610193	-0.4021368129241445	-0.9325951783820915
Si	12.337557892756978	9.309205761469077	3.886533057819467	14	-0.9913832444167453	0.6685786574773658	-0.7205018723072242
Si	10.952630018628227	5.197749117199593	5.407755978808822	14	-0.5642681433073622	0.1437767237237446	-1.3039108662809606
Si	12.120755471624816	6.5781992088088055	6.803366771785495	14	0.998828136981766	0.015719737927385354	0.5109099945983291
Si	13.50018248833218	7.769024237847051	5.149191282350955	14	0.912671683256264	0.1558802020183417	1.333379075686774
Si	15.085571235836536	9.188232440483537	6.598750164905561	14	-0.9655153537907356	-0.6823991199047579	0.31687021874994564
Si	13.588269400032377	5.057667554645024	8.189046093616398	14	0.5299081489194354	0.10630029257726621	-0.5769861157734746
Si	15.159642509334457	6.244964683107577	9.590795336004165	14	-0.5175185066027057	-0.08817194318596613	-0.05018514763343834
Si	10.687754462680418	7.82799011132356	8.318984738702083	14	1.3552936347725242	-0.5003995731600958	0.45210110261058206
Si	12.200391036441061	9.25120115550766	9.537909357572346	14	0.19794502771915637	-0.8464965745262928	0.8351541434064594
Si	10.857358811472599	4.935399531557938	11.067851999624995	14	0.5536618196406874	-0.21571547924989182	-0.4448387585232919
Si	12.301088281549898	6.304460798902056	12.351635338346009	14	-0.16572290740493256	0.29990298052122444	0.3826023260332554
Si	13.770025406363052	7.644924764299741	10.994538679869937	14	-1.203978430250105	0.249142676627669	-0.9401850812871686
Si	14.994203653107673	9.034489818945456	12.346020625212176	14	-0.1516059965341275	-0.1857253354640886	1.4494971339290257
Si	13.698499621293417	4.9037411374568505	13.728159034385966	14	-0.6397799638969192	-1.0719984519562642	-0.5021360976933238
Si	15.014461837372421	6.057564686459869	15.155906415456005	14	0.4977035121213885	1.1844673404176296	0.8968650419690576
Si	10.774637756849028	7.584142078954608	13.843140291876416	14	0.4661820180069051	0.5142822563362354	-0.3775979266381192
Si	12.134707675930157	8.841205108474394	15.306082100174127	14	0.5561941012705012	1.6634611762348328	0.022327478600165918
Si	10.672823099248031	10.946594039358336	-0.5427892174810235	14	0.2623442740045014	-1.355015184066352	0.4564838087393065
Si	12.022284918949415	12.221455969754007	1.0442569438945297	14	-0.06825873248141925	-0.4048876385061709	-0.533807744358504
Si	13.364263165322651	13.496007236705715	-0.4748157306397478	14	-0.5138006883097715	-0.10856389370112458	-0.47934299191967905
Si	14.81911959152642	14.880811496060954	0.6800292667549416	14	0.33967797982391523	0.18350030092003242	0.29215392619683017
Si	13.519201271841428	10.760937661621252	2.2709253777213947	14	-0.0901992597309029	-1.3546400598001427	-0.14843813766917308
Si	14.878106609635237	12.029425298630047	3.6398435121698633	14	0.33946097853489476	0.5070409953125703	0.15393464662258566
Si	10.583594377403003	13.507467627418636	2.4942273335241247	14	0.4364754671379142	-0.8928512894537743	-0.05413539384731385
Si	12.015237250348921	14.809589868394571	3.7398446109225927	14	1.018933152143196	0.2960437514356822	0.25827292873004687
Si	10.848465053820277	10.563960773046537	5.397972520089236	14	1.010405052906797	-0.47876834988062594	0.8275215601530679
Si	12.248296640708395	11.989120376423665	6.776909957233075	14	-0.14051656217779684	-0.15604655253255528	-0.31368564770041024
Si	13.503202917732391	13.366042567457187	5.1199661474758855	14	-0.364988969037581	0.31969097839668015	0.5459978689023899
Si	14.82136417557181	14.70640406271367	6.689162986160041	14	-0.5613514814321863	0.08539206411382204	-0.18707053776759006
Si	13.657984879274098	10.504438633089215	8.168670800618846	14	-0.33804764194040937	0.28836026029695166	-0.6188254555377123
Si	14.740734813036918	11.897804842020497	9.778901238069047	14	1.5001720771259524	-1.0111103070961134	-1.7222798384227962
Si	10.67761317172171	13.338193460192553	8.110758905737567	14	0.31000793865047044	0.24013403780693415	-0.4005296149885199
Si	12.099856442350008	14.546973535083755	9.550059388600662	14	0.31783361191340515	0.7439601230271913	0.21435896408298166
Si	10.831492420114726	10.60216749712353	11.088222413092012	14	0.024263006685173394	0.4873519849919404	-1.0841582374573724
Si	12.134795507479758	11.840325598846514	12.568738663861067	14	0.2759397647163803	0.692059019703086	0.20533284174606986
Si	13.493619519764678	13.183134991920618	11.090857359580081	14	-1.0914496350347804	1.5305995659267126	0.6674126612146787
Si	14.84319519517851	14.805476424154865	12.345059357697084	14	-0.033606403418591516	-1.1058285415377087	0.5836491352106384
Si	13.494821510786085	10.334970911151972	13.907475275449908	14	-0.09249705655551922	-0.33362714056347875	-0.6333329173066478
Si	14.780156540216739	11.884931013963051	15.10254061652173	14	0.8560142922004168	-0.6387162976259739	1.1500317555332904
Si	10.822831253417837	13.502706832128156	13.916440599550052	14	0.20300624854186786	-0.8700360721743764	-0.37870838702589116
H	-0.8934810769207936	1.2058783807339697	15.572592298850644	1	18.118186069080064	6.701219120236783	-43.13856633373586
H	15.19217108638068	0.7016585990995919	15.367530028181989	1	-19.551621508074124	-6.348973577607984	43.38883746848854
H	12.923983125288554	-1.429817928526405	13.215725376353596	1	0.29270877072491813	0.1715336054284672	0.11460110610336428
H	12.637159441001243	3.191274776269597	0.24295019875079554	1	0.24931699756837505	-0.3442368066670698	-0.30777699056417795
