220
config_type=vacancy dft_energy=-23086.464979291937 dft_virial="-93.90572283939906 -39.16330992527185 -197.44604707023038 -39.16330992527185 -8.515310671491648 -47.28706659932844 -197.44604707023038 -47.28706659932844 -62.419244318384195" pbc="T T T" Lattice="15.999960396927955 -0.3284353568230878 -0.47260813581265126 0.1471667056604184 16.550538708607256 0.0978709825611551 -0.7307422519313334 -0.3836228714457447 16.283166647627166" Properties=species:S:1:pos:R:3:Z:I:1:dft_force:R:3
Si	11.518156237628013	14.51001918041942	14.567280029287401	14	0.07398972624002934	0.7555846044006448	0.5386038842227081
Si	1.2746682826922369	1.1818981826836719	1.3826481706008666	14	1.085590857341759	1.7961438376126702	2.0908380158658066
Si	2.6410403792097283	2.588401704833062	0.0899827062470898	14	-0.3276809452895723	-0.69341090688042	-0.9721845438806676
Si	3.7589421785311483	4.215011671290361	1.116861129622994	14	0.784880035528944	0.7634843254967997	1.4729636121860172
Si	2.6322523238641016	-0.014939213778474368	2.753927425004011	14	0.6087027567817574	-1.1704041656480157	-0.09154214803961623
Si	3.8723607663867803	1.3817387853874732	4.156434775511447	14	-0.3673129911364629	0.47974048480217396	-1.7769842178774586
Si	-0.08862983563913665	2.39475548838035	2.9835471913858345	14	0.1558946002081345	0.17958990683861922	-0.680684706877283
Si	1.0536588572921555	4.034943792856644	4.1621200341254605	14	0.4677524491364515	0.1414653000409315	-0.6990804512218786
Si	-0.15354040730569826	-0.055362026925931326	5.683412626071793	14	-1.0043290168142227	-2.1183475572387307	-0.9533141734939726
Si	1.0250820673733911	1.2837349173109809	6.957552568763291	14	1.5607414049264046	0.9115900192480777	0.1206334334054957
Si	2.4046562597881396	2.6841080944214912	5.415248055090595	14	-0.20157157177322524	-0.789081992953662	0.829275311091941
Si	3.748961355608095	4.063733519806008	6.632232816914259	14	0.8750021621002425	-0.5836676471689435	0.357661833096223
Si	2.3344350705989974	-0.28388828960925533	8.154359545649639	14	-0.4843497053096034	-0.5658228906944557	-0.5918651022611716
Si	3.6162727669982333	1.0799797955107941	9.469253714761782	14	-0.47356134738626204	0.8308850801328855	-0.13513729562698304
Si	-0.41046094245298564	2.5093460304194393	8.29532385990744	14	-0.25135922652416864	0.8882140438983553	0.2736149712859024
Si	0.856568824652808	3.980992273629655	9.64540867512942	14	0.48918621152733394	-0.2165307767469108	-0.8812666602127832
Si	-0.5006854042761713	-0.2877355654328191	10.813131335490231	14	1.1603943384156152	-1.5236082163401659	0.7709155912036237
Si	0.7218117048885373	1.0266911028301875	12.320795957478106	14	0.6294034970458655	-0.09792568832847988	-0.7505750627948682
Si	2.071710800595106	2.3475314984961058	10.84870943093394	14	0.37182888052077095	0.18414821946070975	0.08506553373816322
Si	3.353671776327848	3.7328934154644053	12.238954490333313	14	0.9894045217623592	-0.5215566846185302	-0.3578317831578848
Si	2.0678186959229947	-0.4351408246087227	13.578459697298069	14	1.2550277263816454	0.6999659398941376	-0.4793689600834125
Si	3.420300253511964	1.055234271112541	14.971815558580582	14	-0.17934050962256484	-1.4771653125002033	-0.19290488996007008
Si	-0.6469219113292278	2.2987673174581924	13.707698065600075	14	-0.3587746074787831	-1.0707000437695893	0.05644501775640287
Si	0.6928586728480347	3.582891285133354	14.984239553749479	14	0.29914579000444086	0.9543477578326723	0.07826110350839133
Si	0.23154260377845268	5.3356528334640965	0.20860144053423882	14	-1.1460974501723997	-0.1934453362983652	-1.1797876716244282
Si	1.373286946405953	6.938003988735945	1.2953423870241882	14	0.652450628025141	0.42037340584942273	0.3348039354685105
Si	2.8231287578886963	8.337349304390472	-0.06063421972118544	14	-0.6106069173818589	-0.42095344720964817	-0.9140199708861497
Si	4.089791889054583	9.636582195056466	1.2930657219300945	14	0.2424320917420825	0.6530496955647354	0.34995674467280324
Si	2.424481818058298	5.4532901361741155	2.772219196241721	14	0.47449594417013585	-0.2916031954372545	-0.4546089587398545
Si	3.737765350683342	6.8535640494056995	4.1043852802871195	14	-0.15754910648164983	0.5538564523134225	-0.3869791186197435
Si	0.01461580565680983	8.207491337360327	2.68934826661064	14	-0.6305342691656668	-0.4593662749137245	-0.2899844275276892
Si	1.2861540741022437	9.46372375608738	4.034229733340493	14	0.22236281494460264	1.5267935587212975	0.21125872528794715
Si	-0.2942389505328259	5.4037702688321145	5.448006736166724	14	0.10387085516025829	-0.37703973967311505	0.6237267536095106
Si	0.9428819694402188	6.75226205890035	6.841343385085573	14	0.13939915980566048	0.26727591111907734	0.17037917913972075
Si	2.3383223721801927	8.168432602032961	5.589713928486172	14	0.8735150347830688	-0.4136790189273532	-0.1581723424112537
Si	3.7700101010314793	9.489476328547648	6.894665699402591	14	-0.7736322210848922	-0.37915318824627675	0.4306164323343607
Si	2.2381843307067752	5.22253363827555	7.962565721260123	14	0.2157432471873494	-0.07116665259850674	1.453306483571357
Si	3.64824374116417	6.431947127785592	9.46697704966769	14	-1.0257851478213906	1.5060745636094162	-1.0570996679576021
Si	-0.5257751501900575	7.943609522445726	8.267621232535353	14	-0.2555521850802661	-0.05885105811499745	-0.6106619390357102
Si	0.771128241381769	9.19293029334493	9.630741636502842	14	-0.10020985829489945	1.7914636545984046	-0.2661644222891773
Si	-0.4670941874413014	5.319655338653839	11.077065984404905	14	-0.8922740763094011	-1.0738607035396475	-1.1781051403029232
Si	0.893298060886007	6.550023112799255	12.301894193694087	14	-0.0005317045802066227	2.013055652168027	0.7699234016605785
Si	2.187732663727107	7.919432363805844	10.76871555276143	14	1.1211584998985595	-1.778235060615711	0.6269522052336364
Si	3.6752323090201062	9.199710656687746	11.95181290714375	14	0.0700063127675239	0.2651629767669797	1.5702146424784902
Si	2.0216081582219867	5.031738856796524	13.596821913869212	14	0.041807458058267834	-0.13983264816263746	0.42015743300253033
Si	3.398311703299386	6.497912778423327	14.73665462631222	14	0.49068362326578824	0.625193312084123	0.30862905486727504
Si	-0.5824932497845525	8.104061577579275	13.737192245883758	14	1.5100548917555372	-0.8932040451036988	0.1600127395994157
Si	0.8204864046629379	9.618476143334169	15.017835573675264	14	-0.33495871600878346	-1.2016945173942177	-0.24555469915340233
Si	0.021101579423458597	11.24158145445323	0.1080215146965669	14	1.2678377444182192	-0.9619800839755317	0.4605366420554559
Si	1.4475987680250602	12.479382812306016	1.490304650387832	14	-0.4269423228318691	0.5096612087443332	0.15852638361383808
Si	2.891801750772643	13.782803998250596	0.12499083490212363	14	-1.2035333719191876	-0.6206036319771266	-1.5263682979013449
Si	4.190615171498656	15.014369343064354	1.4090987922742324	14	0.316407934013383	2.077662900873772	0.30882445887160626
Si	2.7575233390696474	10.939153233908948	2.732883482671542	14	-0.6412984586989986	-0.18343859439234889	0.20806464114872716
Si	4.052989005427341	12.254955187204182	4.158977211636216	14	-0.35081112297068845	0.6450134487760806	-1.0520474460035112
Si	-0.026360963976270548	14.058762384757848	2.734489316067728	14	-0.08314491806401261	-1.3379327603192883	-0.1922232899396988
Si	1.308313934557486	15.178745523476119	4.150738309685296	14	0.313125918072214	0.4835706603975985	0.959308191326834
Si	-0.19534010651568742	10.837263665281567	5.348373019239467	14	-0.5079187706688688	-1.7925954551603338	-0.0761232294346882
Si	1.0345793791442528	12.011661020985049	6.750962022292472	14	0.7179947875095479	1.2601033453941497	0.34887328089089287
Si	2.412390837192899	13.47062870520783	5.383600489046323	14	0.21694215359813446	0.2838374289282792	0.23319179633200235
Si	3.737723723895405	14.861911232245019	6.737213975061118	14	-0.4244966874513442	0.6975390735824497	-0.22976631271396905
Si	2.069283638652317	10.760652764144092	8.350122324165916	14	1.6481412451847302	-0.907133265286133	-0.19222406127129485
Si	3.631320850837466	11.99980699260483	9.611066575081379	14	-0.4772087173934241	1.2992134568610503	-1.1098734044273653
Si	-0.3841928382344208	13.235163577181465	8.143296426240223	14	0.8699095737926252	1.4414876266357004	0.638681587704152
Si	1.0044656001324295	14.802476184222481	9.455931541591632	14	0.20324613266823766	-0.17531698690706513	0.5778469218346601
Si	-0.3724364727028232	10.674443686326523	11.135010473213239	14	-0.871730173469822	-0.395374291711091	-0.4408383757556734
Si	0.9174335927379522	12.126821529812814	12.365837743056266	14	0.3817942276311329	1.0107657789832136	-0.722284676736215
Si	2.4177478845943323	13.512215467387218	10.997670891566568	14	-1.4948776570507034	-0.8695704450008975	-1.01195208697793
Si	3.798420383798496	14.733374115216721	12.244241092401316	14	-0.5938569375526903	1.7008594457795785	0.6309520737801908
Si	2.2718700083296564	10.75946479965758	13.520689720793012	14	0.7426347182346549	-1.4992565065214476	0.09034375584989522
Si	3.5954929946661336	11.942810313737217	14.961921191294014	14	-0.12141016432271244	1.3494860220753737	-0.06189396126139269
Si	-0.46905064647434136	13.506699917985564	13.665238741904314	14	-0.27826635792058235	-0.1973027656101834	0.5570399949208299
Si	0.6403865056231157	15.128373908011715	15.004832005535862	14	0.045138325000519675	-1.1133130291246596	1.1976224007881673
Si	5.512954131530306	-0.301610094058289	-0.2485647579840833	14	-0.696518858991415	-0.10604215360312336	-0.2141951846740883
Si	6.669647294118113	1.233760357362283	0.9925139089035888	14	-0.4566604436748007	0.6574946224422074	0.9237714020338753
Si	8.05365634047846	2.711533743550767	-0.30044134193544186	14	0.3411108568188338	-0.8672374240333953	0.5395724195968079
Si	9.387082435374104	4.079919936192288	1.0264941761026394	14	-0.06066548713942594	0.5981689382851106	0.22192032771900516
Si	7.7846528296173	-0.31159411904195267	2.4144769796806655	14	0.8039481239147581	0.544053599059294	-0.29105426445140287
Si	9.337034228031365	1.1049942930003327	3.5357761653098683	14	-1.142211481591528	0.31190875681365593	0.220806010673253
Si	5.030152235764002	2.6434323184858024	2.328474434772477	14	0.8810442596025905	-0.602951451291118	0.5252937862013655
Si	6.439539213493183	3.920841565060661	3.69366497092468	14	0.6765886789917551	-0.10681939874140411	0.22490460966410106
Si	4.958238757542189	-0.309158951947637	5.210577143955794	14	0.2786661647978653	-1.1250100156681413	0.08934796675940186
Si	6.326737022305079	1.0855449768519128	6.329114552308405	14	0.11667444543353168	0.5382935518105662	1.4484144414787112
Si	7.777755591062196	2.364063737428324	4.989647770070976	14	-0.5417892266038397	-0.238046814508038	-1.239169148766972
Si	8.940252488506605	3.558930265584683	6.476138766271655	14	0.6773083313708647	1.4143411253339808	0.977382547506411
Si	7.55422294190101	-0.2993718536915215	7.740320300464374	14	0.39439572902624265	-0.9727838685307941	0.7068834987579958
Si	8.784044764712329	0.9737594399076561	9.342447311493483	14	0.6284305907927216	-0.28161779370539536	-0.7801839116616935
Si	5.014108311074891	2.388101606431648	8.008364794172678	14	-0.32432205329933084	0.3731655981767159	-1.0924377108093133
Si	6.347796974940601	3.7574660285896893	9.299909537312764	14	-1.2350993461557096	-0.02115016947407011	0.7874979349659187
Si	4.869797843479074	-0.29014991913316623	10.770668809733861	14	-0.49421632197567167	-1.1909812357462248	-0.15162399427136855
Si	6.130210552333187	0.9031780188998282	12.154586597366805	14	-0.15181168495973937	1.3217345396918234	0.4973152752180462
Si	7.413092120491459	2.2896622581121218	10.755479835227764	14	-0.18192421335878164	-0.7474467989518442	-0.9385971666414451
Si	8.810657090446526	3.575508934395754	11.871124181818752	14	1.25503466836601	1.0219480302416015	1.2425979748219216
Si	7.44058020980264	-0.5553637912617523	13.294769935446668	14	0.3546955488883682	0.07899541118782562	0.39142970192891985
Si	8.657707463323472	0.8879762361512895	14.634552120654236	14	0.6497337410333405	0.5369925725185712	-0.22348613085897537
Si	4.7993236915017	2.340216391031327	13.600659583510943	14	-1.3368737220379192	-0.9655269237646761	-1.6974573592199584
Si	6.043138519181078	3.7268591322438427	14.723839979748838	14	0.5006196597755005	1.8074361321787606	0.849228116818418
Si	5.386229380807577	5.538772346233091	-0.10499556741960658	14	-0.7902027377627145	-1.307526097471621	-0.8922771616357853
Si	6.561598561906357	6.772668791171322	1.3281250835548968	14	0.6260294355342352	0.6453952579161226	0.8675413286822368
Si	7.9437696254762535	8.025784003894016	-0.11679996386036232	14	0.8367076052408928	-0.207575616916835	-0.3105437569991893
Si	9.331448233296278	9.381984754882126	1.15840466398414	14	-0.4562228415493115	0.6851568874711487	-0.3523098202618028
Si	8.00259628198279	5.39202991360357	2.610071650014891	14	-1.1711677839280996	-1.3936347286381683	-1.8178303396565232
Si	9.24469800723553	6.659970666953062	3.8810927856717226	14	0.9621981137066805	1.761745276644941	0.49434667701540314
Si	5.193582207265353	8.22393712065606	2.706729051604652	14	-0.5535276079429756	-1.4675213535548597	-0.36184193612571974
Si	6.499063919212817	9.46861490366998	4.005992361846445	14	1.057533927646175	0.5524978802622563	0.4274462594746181
Si	5.152459743874493	5.353704450156016	5.069447923576549	14	-0.7855266685169613	-1.4562653115737834	0.22301896102230445
Si	6.390935135485796	6.405416454596963	6.562725687241267	14	0.11683745351082907	2.555603869062374	-0.42030578577950284
Si	7.829175881376553	8.002093558466933	5.314058136706615	14	-0.5377088824607645	-0.8699393986143389	-0.5577161956200288
Si	9.167121684823975	9.343070112282232	6.5563792031111765	14	0.1537934929405095	0.9568898096627027	-1.120733496189139
Si	7.554607189174274	5.094936326036446	7.867118698581146	14	1.0135137763493878	-2.2843229471861024	-0.3743611621505848
Si	9.006195724720069	6.29133504019495	9.014761236853262	14	0.9864148404960911	1.5957770857924665	0.19155197434060817
Si	5.077744462618458	7.772475393115416	7.993305503121307	14	-0.9180362945067528	0.12417153143655145	-0.30555684112023007
Si	6.47403501245053	9.283801571411443	9.001200510167624	14	-0.48431036739820515	-0.17605823657086384	1.6066322924541316
Si	4.772901888373829	5.043991541722756	10.793459476129378	14	0.6749287733970676	-0.9639798896935431	0.3969922882890602
Si	6.362323122900316	6.369699069516694	11.83081183976236	14	-0.2824883699667975	0.4596475538357487	0.23578707004215982
Si	7.64518707972523	7.685910886570078	10.294946669977458	14	-0.08110500310300713	0.3181282605830942	0.6522374833941006
Si	8.817666401122999	9.109779183410426	11.739034378543062	14	0.009639330955767163	-0.05450717567660726	0.820404483516366
Si	7.487298274110418	4.979910303754323	13.292590933201197	14	0.4213594247396996	-0.20210584745875199	0.0726558367999365
Si	8.710113988305874	6.449076551021676	14.654515367530648	14	0.24096836148332226	-0.005516563574909718	-0.4346641234398699
Si	5.102190594349626	7.675946073950077	13.374182639618367	14	-1.8645792050295837	0.39211772971259146	-0.7107622682439713
Si	6.207610761411161	9.212413231129759	14.820955276005906	14	-0.6588508804985856	0.9206228264588218	-0.14235875913968293
Si	5.58326978150746	11.070878002275037	0.1484635402076871	14	-0.15802398963428116	-1.4467879602531857	-1.570767944343386
Si	7.0012654991880785	12.429999032539962	1.230308536024121	14	-0.0722840549706431	0.5221662936899374	0.19926143364307217
Si	8.4177738597151	13.630176178218901	-0.32513403233362104	14	-0.1529182886895311	-2.329567201725812	0.1952425389171487
Si	9.406029028006671	15.023852245562468	1.0373027316935173	14	1.2679986956112606	1.0081663915045438	1.2982292377444977
Si	7.950370673424881	10.795475173283712	2.5339874878478503	14	-0.3047407722916151	-1.3608600777906448	-0.17587671653526135
Si	9.298382154401537	11.938199346458038	3.8659806606202793	14	-0.10982219264480504	1.3971419734053823	0.796339709051376
Si	5.496673254356017	13.636607516955172	2.641294943028267	14	-0.6294582615891847	-1.500117055472101	0.023742872078907434
Si	6.656086567432476	14.926235826819852	4.009749979972915	14	0.4353842900400433	0.5777438205113222	0.8714486374372659
Si	5.1681530429267495	10.772913454221849	5.46191648745891	14	-0.21558820953654448	-0.7530844615873328	0.10402769258478732
Si	6.398040507980584	12.08158441853741	6.831197656041077	14	0.34002199371575104	0.8905128691650998	-0.19210527620550405
Si	7.808388103892927	13.254803415936214	5.332660507823547	14	-0.223323894113274	-0.006050325039372459	-1.055554433660193
Si	9.107305591588783	14.675327160468852	6.481426969369961	14	0.16672101049021407	1.1735931075765955	1.2815707892647261
Si	7.9009468679011965	10.70955908401201	7.893145047223616	14	-0.9740951322440695	-0.6879208256903078	-0.6519821726358099
Si	9.028789464388037	12.017714516569272	9.230831483761586	14	-0.24321679308579172	1.9801179932432058	0.9166162730384352
Si	5.010105735311716	13.552753554716654	8.10482526903489	14	-0.44755333152030413	-1.4568245269809157	0.48721134553092826
Si	6.27876695229858	14.93206838022195	9.398733132905555	14	0.03289652123969863	1.3813314754601957	-1.1361241326355453
Si	5.03989450517157	10.54889729390847	10.614084843817844	14	0.3886747625783812	-0.8341951211220443	-0.4067203223783724
Si	6.22918944786559	11.965277572011072	11.953883039328465	14	0.08922506792509878	0.731003037766305	-0.13539594882218994
Si	7.485609187138358	13.484341529772468	10.54468018008439	14	1.33598180560236	-1.800774655404789	0.8109602994543982
Si	8.854123462204303	14.672536564646768	11.999080124846236	14	0.9934298442515831	-0.1455320173258097	-0.38016980328986333
Si	7.506030328682077	10.506410752697521	13.1694925161199	14	-0.08893093347647385	-0.9163051692946973	0.5173855804576541
Si	8.886083229158102	11.778155554052335	14.48790574984303	14	-0.08780196113039682	-0.47963738347883605	1.1772903570269682
Si	5.0406325801423	13.309232042194171	13.509125478898047	14	-1.3048889147447453	-1.812755491975615	-0.48247022732057526
Si	6.41218400969734	14.495182432580481	14.703263538265508	14	-0.8929183953026302	2.3866195145588334	0.5402493916276029
Si	10.773355338586104	-0.1607866704673503	-0.4520669169960372	14	0.2147898813346385	-0.10217726808587675	1.0583592524539425
Si	12.131482129031454	1.2772347342715846	1.0195825282747888	14	-0.854504796266958	-1.1336548430860751	0.22003210797188844
Si	13.708844403298649	2.3009575269158016	-0.2889219288890242	14	-1.2275960894999214	-1.157958987456371	-2.53146581809576
Si	14.858712373695088	3.504282298174902	1.032261087262222	14	0.5129509380014626	2.6719808376103646	1.8276637890639615
Si	13.172758617942653	-0.2879084767057883	2.525969528079058	14	-1.5847411304267949	-1.2352163314477764	-1.148394732775952
Si	14.42940890557938	0.8817033994152417	3.8958975129045545	14	0.8902416175538241	0.9852064209956215	0.6351627729629973
Si	10.70283635776018	2.6611477188136146	2.309808022443334	14	-0.1381480599568764	-0.7145780456496031	0.18488484113493217
Si	11.842505765112051	3.8483293015046773	3.9458352491562314	14	0.6512213825715781	0.03047145470173496	-1.0364657764318177
Si	10.243592021905618	-0.3735732042195649	5.06690868951239	14	0.2995497106502361	-0.7358703972478773	-0.13856509323980448
Si	11.590913458820703	0.8477359404586333	6.436913523792541	14	1.1439960857942428	0.5765477423163894	0.38258175719069426
Si	13.13055385806543	2.341852644003313	5.209547681469505	14	-0.6438279121129604	0.01321625267715717	0.33490755101291253
Si	14.416714336288894	3.8513600518725535	6.532336531016937	14	-0.486670127861037	-0.7570874154602714	0.10071945136935279
Si	12.962940394376409	-0.4471117282012265	7.877992896414541	14	-1.1273744041205493	-1.6984150959517135	-1.173692095131421
Si	14.237208419492328	0.7609841133675784	9.189805082189041	14	-0.4236651919908084	2.341027903690372	-0.19909096936034637
Si	10.316171528734422	2.1797467245644206	7.861788868694903	14	-1.7245100151774926	-0.5094940868985236	-0.6254306251051728
Si	11.534341052983986	3.566608806928758	9.055025548000497	14	0.7252920986291921	1.4953900783410088	0.44748545433985226
Si	10.192914609652906	-0.5224626184884538	10.54034459001772	14	-0.9437452908239776	-1.2410285721345031	-0.46015586135754194
Si	11.43756357412133	0.6947366813961163	11.941431826644381	14	1.0142856221664964	1.4382315788582647	0.005522991338210089
Si	12.728738479260903	2.173779684616679	10.423924070339705	14	0.5276368344796165	-1.049340329211927	0.5582859525589736
Si	14.237735158462762	3.3261900911378883	11.714242424265956	14	-0.8250080475920911	1.418368761817993	0.8463909020976346
Si	12.870258351034634	-0.5814221605103268	13.280768925427083	14	-0.8148362407245213	-1.357007019357871	-0.9196190669418361
Si	14.372084015499187	0.18112615946550037	14.744768647899328	14	-0.6208064921868864	2.123559187722671	-0.1101754625157934
Si	10.176244682114437	2.1808530365053618	13.22694388759421	14	-0.16221129175867433	0.2799339768312304	0.6911385639984731
Si	11.672886210450526	3.5350268831270015	14.605866460674713	14	-0.7623185863446447	-0.4425201357455823	-0.2086140863556428
Si	10.845297635353411	5.3688934246621125	-0.42685389174864524	14	-0.18653754763472336	-0.6756885350191714	0.0869005316051529
Si	12.137377122615458	6.646952689540911	0.9750018394245457	14	0.061672331982795925	0.08897052849840413	0.6718341910337373
Si	13.613546276438061	7.919594067866676	-0.40313622880637545	14	-0.1857726438019793	-0.857681654000533	0.33761209669917625
Si	14.76986639896474	9.376507630207797	0.9368252717953826	14	-0.11007107563979537	0.958909155781147	0.4760026118877426
Si	13.29492523538628	5.0295854710359365	2.327464184649852	14	0.15374412771836268	0.0030868690473697838	0.062128960287654224
Si	14.628135191190715	6.51565859832694	3.6050079177703536	14	-1.1113993554348733	0.6058377741235164	-0.4102329664667588
Si	10.72080952396714	8.078577978210292	2.3892287317665577	14	0.22374478405418224	-1.2892295977923833	0.41879808961976805
Si	12.106646946936106	9.465992416029948	3.622604841855576	14	-0.5389304145983669	0.42765863277406235	-0.027586160311464783
Si	10.344820365016925	5.116076330187233	5.194289862660282	14	-0.48631840065324083	-0.9385575716195149	0.014116653760273028
Si	11.713558784325604	6.496042775026771	6.307281302035439	14	0.3808994829797213	0.9469321758683011	0.7239294128095136
Si	13.103797439603758	7.914875831557046	4.952252505230785	14	0.07683979648741347	-1.7724896686673077	-0.7469194652506818
Si	14.301795583037226	9.104388514372582	6.366300082178606	14	1.483167300759557	0.9217731389790561	0.5267911979398198
Si	12.8760508786791	5.172999361660802	7.847006555886345	14	-0.04003699493481387	-1.1598520923035962	-0.512019426543973
Si	14.13067906504027	6.378194136316457	9.282741689349354	14	0.47605711932052974	0.49901040495561977	0.4882295032377069
Si	10.353973455272152	7.873202613741173	7.690204849848811	14	0.812264106962245	-1.4674012829364087	1.536736537215374
Si	11.542019594328062	9.113733728264442	9.311753959511153	14	-0.1710900897607417	1.0738141665333527	-1.2665269949260076
Si	10.19248073044018	4.9264038709522	10.439335588058235	14	-0.28980933525538716	-0.7186254796445801	-0.031865508006319244
Si	11.49453783856467	6.2719817858648454	11.737209203995054	14	-0.10775322419368188	0.6733035777242019	1.0703506305565813
Si	12.843751693300584	7.843159280062781	10.668492656681835	14	-0.12758235975425994	-1.202896509131387	-0.8625279304184801
Si	14.031247077931479	9.12617053167578	12.055598095652574	14	1.0402401590417951	0.7781283129582351	0.049336168656725445
Si	12.851089215189635	4.97457727180747	13.117037960228341	14	0.19540657543657416	-1.5226435376240464	-0.47843333485741063
Si	14.237856836765962	6.123561473475401	14.494316275185332	14	0.3817692879095274	0.3982079068844262	0.9232870057915593
Si	10.171921900290206	7.755594129576648	13.123964017328937	14	-0.6719295790411148	-0.8780412085886575	0.22850107178592416
Si	11.430844049930114	8.839153828850026	14.721998794897779	14	-0.2667035830748124	0.8706577654407882	-0.7147806487488307
Si	10.719067602995008	10.616536021215213	-0.35793434019768755	14	0.13227231296874203	0.5165438005758377	0.4213252290389416
Si	12.045548428426393	12.102473060930267	0.960043413282408	14	-0.7874696528073971	0.8826031207581962	0.22087003119572468
Si	13.514733888057409	13.67740817325467	-0.14643183275029947	14	-0.9021993141767689	-1.1885633683031576	-1.3582318939323894
Si	14.759262775252937	15.277830087008669	0.8657283190292576	14	0.22295468338930075	0.14525279528804164	1.0979285633310214
Si	13.465183601139607	10.968008603100829	2.3313290718067736	14	-0.28492012137859357	-1.7672435853720776	-0.33917944250233856
Si	14.68720840636426	12.17171602060289	3.7978920437977566	14	0.013534555515791503	1.4077233573504517	-0.4245954178956379
Si	10.480142648478957	13.420470026774026	2.4629897989606517	14	1.0837771996489265	0.1448545310739507	-0.41570067904058566
Si	11.785710816062902	14.703518102084047	3.9771578060485333	14	0.7205592079558636	0.4337220704505676	-0.9987376340744968
Si	10.66508886625283	10.612530243391426	5.137197121974354	14	-0.530737330385183	-0.8771042978099955	-0.3991391612313838
Si	11.808520694822086	11.852496194216936	6.600292262324122	14	0.18128683634991696	1.950242006533617	-0.5296410110766718
Si	13.218575302188563	13.362222943237999	5.298278382017874	14	-0.6793413043475056	-0.5432858670106978	-0.7586071958150109
Si	14.48816671778279	14.672690263556072	6.63488252206948	14	0.5480179863524303	0.9236968399795911	-0.04794417223639728
Si	13.05089779728733	10.470831056223505	7.77679657390934	14	-0.13415950427373072	-1.4313340746159038	1.6357865699003546
Si	14.354479086262439	11.72339711555149	9.211124401734017	14	0.358217191845375	-0.259074599368869	0.052598644197461346
Si	10.457805073659829	13.286619090162539	7.877866415020424	14	-0.4713440261581664	0.10547908153801093	-0.5144048980600064
Si	11.705228623647287	14.591650912594222	9.24808898942209	14	0.33017028946053967	1.1113078240854761	0.23652574860063835
Si	10.128698885138833	10.633825547481822	10.60668007865597	14	1.1708903616640556	-1.0747083969637001	-0.34001248062606654
Si	11.711086793534268	11.811050322704412	11.764618842821276	14	-0.984469285100335	0.18119504788998766	1.8179403829642256
Si	13.06775504537152	13.165838964963276	10.488232654611485	14	-0.0010150723803944617	0.4359715304951651	0.17610554490875455
Si	14.310084116927607	14.611004166924324	11.862073557503061	14	-0.4559963271706064	0.09538877870908978	-0.16323613433928535
Si	12.67402967269952	10.4006819133981	13.456049723248041	14	-0.05294780029993745	0.3922090039514567	-0.6829133409687874
Si	14.059955152335274	11.862262479079083	14.601713388062844	14	-0.34466232459755436	1.2144471997821524	-0.05957508137315113
Si	10.19779134796276	13.156679470586825	13.26693602358955	14	0.8098539528351382	0.24671298210012907	-1.4435689363923603
H	15.474314930192623	-0.8746876846175485	15.67323333944059	1	-1.1623812886070255	-1.0107524092355489	-2.507052401749358
H	1.5043905150135974	14.243085801742973	14.141658930873815	1	1.051438351153168	-0.9831932455299455	-0.9949689078962238
H	13.907551476546319	14.257799270248404	1.7577295453679957	1	-0.33325047363407706	-0.24400946485599334	0.33672455114266114
H	0.44132720570828604	0.32133959051013117	0.5389164069357136	1	0.32579709642149984	0.6518831850809842	1.6448895682863387
H	3.608296434017378	6.550023112799255	12.301894193694087	1	0.3105363007937609	0.12902860649684322	0.23920612589689275
