219
config_type=vacancy dft_energy=-23068.974642127992 dft_virial="-84.0872800631942 -16.2821927081089 6.181378786688086 -16.2821927081089 -232.6608629299493 47.56544365254695 6.181378786688087 47.56544365254695 -144.8062111708093" pbc="T T T" Lattice="16.554791851320378 -0.15026120808231722 -0.1171991066565363 -0.0555118808616141 15.524684715260246 -0.270854271069492 0.13387088238801417 0.4915111002146136 16.10121028258622" Properties=species:S:1:pos:R:3:Z:I:1:dft_force:R:3
Si	12.550754486570842	14.65445610061154	14.583444600643858	14	0.06461907579021764	-1.4921988224176408	-0.10038006546709323
Si	1.4683264995299072	1.3854858200586102	1.1018917958358192	14	-0.8749535682096916	0.32126269507888666	0.04667790286622434
Si	2.9352540268162097	2.6119225685212304	-0.13699663338910956	14	0.6381349707130884	0.2935379521906659	0.7311513905432776
Si	4.1128277376483595	3.8805006654912035	1.470652601307735	14	0.17147755533248799	-0.024873644198708564	-0.3632465309621166
Si	2.6373673074702957	0.05792241765059442	2.526512415769372	14	1.2394175175408984	-0.26126646665429526	0.7033474576111962
Si	4.194680030812636	1.3173119987010338	3.946927841029842	14	-1.3564655445774476	-0.3909136810911661	0.6024919947704077
Si	-0.037133193434093124	2.614556609751497	2.4588601047747964	14	0.1058398076144277	-0.5680538387807483	0.8283425140817912
Si	1.2220560614134157	3.985430206115368	3.981998171250288	14	-0.20036238094115957	-0.5983586858577375	-0.588293836971486
Si	0.1024974811852827	0.01675289956572243	5.332259691362233	14	-0.9878040087005671	0.067907005273623	0.3551928006572848
Si	1.5803237472640697	1.4583913132176332	6.43695274286217	14	-2.073499252918324	-1.1402731252906684	1.3841108403112756
Si	2.7496758058338044	2.7779333895661646	5.208966363606633	14	2.276174857316021	0.770954414893958	-0.882564811288926
Si	4.204113573823357	3.9722848337908463	6.738576125348693	14	-0.05619022121917618	0.28499854009085807	-1.9023050333921165
Si	2.643471462100083	0.25310470725447964	8.030622188653691	14	1.9982851663248404	-0.6230412969311592	-0.6333462870543126
Si	4.076570350506416	1.531569978471561	9.323232807621492	14	0.43886350975926774	0.5458312612776443	0.49886308062077533
Si	0.07707592047457335	2.6405609375980035	7.852658018971094	14	0.5255089877166619	0.7763635062664855	-0.14601152846801735
Si	1.2345888660099686	4.201009345472164	9.229640736730113	14	-0.15850812876606502	-0.14748245782167402	0.5587811474436342
Si	-0.02687351178484104	0.44172258863837377	10.718948508737183	14	0.34742060638500916	-1.541583842075449	1.8924846966218107
Si	1.3151961566568602	1.7772295044485378	12.037707491746986	14	-0.8515976474814666	-0.22198949045211716	0.2933343206493102
Si	2.609531898793698	2.996353518709973	10.66161051381084	14	1.0106140837693247	-0.24225777080137648	-1.0217865648274962
Si	4.123550984064723	4.080053708613569	11.986697155891717	14	0.2110877467841573	1.3599015697272936	-0.39345187626321626
Si	2.656678091197402	0.3870649914190082	13.15982230054805	14	2.2793864249714177	0.591836305881586	0.5220102275970043
Si	4.265087240994618	1.7262125462394522	14.542692290849386	14	-0.5793111663144845	-0.8307390413507012	0.01589431597862341
Si	0.13808601059182182	2.8669080242594203	13.765716351458996	14	0.8111420766005326	4.114808010117862	-3.1857468159983147
Si	1.6511382322057286	4.447008267082204	14.832065974364987	14	-0.4939846653863263	-0.21632020322119067	-0.8488172541882584
Si	0.047647835705256596	5.189617501345086	-0.01417349275443717	14	-1.6811125855892453	-0.19524845245938505	-1.2340043123998587
Si	1.355208418412407	6.5748450496048765	1.1448725276893343	14	-0.2049037242681371	0.20059403753050492	1.3013299907605962
Si	2.7966349167422098	7.743973603733325	-0.13771515877813253	14	0.5674848531733994	0.7013954744521398	-0.6529100845458513
Si	4.171261732131231	8.994230958871666	1.3577431243354352	14	-0.2973167056796875	-0.7204692192696585	-1.0165317397741775
Si	2.536093306152497	5.283355264020413	2.669662871441888	14	1.7469935598705912	0.2553022736431477	-0.27619044748509475
Si	4.1254963004981375	6.585925903127297	3.9983553851755116	14	-1.941384034484643	-1.3626737354834773	1.2597377342176246
Si	-0.046434289368496584	7.814534783641527	2.608377953641281	14	0.6156385704933888	-0.45027844604912914	-0.4395435671164469
Si	1.3325384457121956	9.23467703680709	3.757081513013102	14	-0.07957236722166686	-0.41619664525684225	0.9888342506023505
Si	-0.01757738261579949	5.211914966643154	5.457804619415231	14	-0.13331103951808185	0.17935902158086992	-1.522721956336311
Si	1.3708239287102522	6.481438404620343	6.589448995357346	14	0.5943431335687303	1.4642712193196605	1.8414425995851673
Si	2.57534068604231	7.932651086301562	5.309237078321327	14	0.8751633704038158	-0.004077258816690823	-1.1934083591684446
Si	4.1089983615543275	9.229806295575512	6.462111065008697	14	0.31495577372856337	-0.5197633386577271	0.3409779306737821
Si	2.84980579552991	5.26983407311684	7.985874943919789	14	-0.06901438033501078	1.3044705959091571	0.6171226124841782
Si	4.283936115543066	6.6986002865391345	9.3638328032782	14	-0.4830317567224955	-0.7642083487549535	-0.2712099593694359
Si	0.09753237141182666	8.054047109688913	8.060532049663113	14	1.1692098872268069	-0.3336266263424147	-1.1504001949256677
Si	1.6960907699079222	9.29024520767614	9.275543582204886	14	-1.5219112868288682	0.07946000991917639	-0.5015061768898875
Si	-0.05066100669148199	5.533960032709397	10.797021093461048	14	0.4626955991927843	-0.03910136970881199	-0.7214575521547233
Si	1.419822724593948	6.829231182322729	12.104550219987573	14	0.4699294040110209	-0.8308457422214873	-0.9546843155190798
Si	2.8074624652311733	7.977931430517642	10.670236129656024	14	0.2708842003253732	-1.3278136611107814	-0.47127923430409857
Si	4.163631124946883	9.290834597165754	11.800065980652587	14	0.8799520540625915	1.100697643760821	0.9526158612890205
Si	3.024241906217097	5.664943568833689	13.3176247140382	14	-0.41640567611937024	-0.574353818146707	0.30505393291960914
Si	4.427379610371935	6.994781749777459	14.623635665952435	14	-0.019444241094151864	-0.7773536389252745	0.6497841346976153
Si	0.17990451935065002	8.174688184741253	13.382583382618167	14	-1.3908023990174934	0.24153220488003072	-0.17324981822966606
Si	1.435446512834063	9.548296813231081	14.62709584582123	14	0.9121533484237222	-0.05383997384602884	0.8105790045354202
Si	-0.11047907312187207	10.23659943502684	-0.07374322091673174	14	0.22753536462767657	0.9094966252964131	-0.13468658086436108
Si	1.4424827637634354	11.731388860405003	1.0496314906978021	14	-1.006416754334183	-0.32781078610823977	-1.1514731171757655
Si	2.800859978476741	12.861693865287856	-0.4719999902845771	14	-0.0699055254389741	0.06242695139425938	0.9727321893138592
Si	3.998050756899981	14.309911587455844	0.8842133703193896	14	-0.987142206191161	0.09828821417862076	0.10140490804770427
Si	2.704549431343944	10.398636843782246	2.3346975930808624	14	-0.682246139138209	-0.7558450573695757	0.1180965237861056
Si	4.04823495411672	11.563315176146423	3.5949994033694392	14	0.9103764575369677	2.1661917134781743	1.8496487964354837
Si	0.05376192386576781	13.012602408455674	2.35005152040298	14	0.0037820959259378243	0.13478993929823102	0.3026491781136746
Si	1.4457244059563088	14.20925677621983	3.7393451939057214	14	-0.06858860529399426	0.18596213426407424	0.5051836288292952
Si	-0.12142747956797567	10.48365296648206	5.1190480434946135	14	0.274857843597662	-0.4989594970702808	-0.5933882250528274
Si	1.2007850609568091	11.719607692966552	6.423789159064653	14	1.744775210200368	-0.029858246082879646	0.7055894614503653
Si	2.7625016495867105	12.957976267416935	5.261675333215676	14	0.6831110589679067	-0.061126486323328504	-1.3958548780821163
Si	4.245400638688461	14.314808818102687	6.5019196893844065	14	-2.0013126428393146	1.1058180000058961	-0.5076171800148155
Si	2.826798082785089	10.566606225968227	7.803369495107953	14	0.08113534214578486	1.1331254525006567	-0.24947589187716016
Si	4.172822952043324	12.041965665250597	9.121684780412094	14	-0.5726736008199902	-0.5928323520826113	0.2580559274410264
Si	0.03830203888259595	12.990891021470313	7.859104880410853	14	-0.29329421140631584	0.7405027577031882	1.7410535352494536
Si	1.2930178937274779	14.598235627891627	9.169445196132218	14	-0.9545958694960666	-0.7342747692861934	-0.3857935819566232
Si	0.3157836305333298	10.551214220111667	10.64880288153093	14	-1.5957588309446935	-0.4265031780431878	-0.4230977490466517
Si	1.5308994651477033	12.007898621633256	11.829017255947159	14	-0.7524378285993156	0.42555341173792516	1.0455106678375665
Si	2.677238844207255	13.358900189784126	10.454476531157747	14	1.573494087314339	-0.2449006099599567	-0.4621196716010711
Si	4.123459926699755	14.591258978146596	11.780693940152684	14	0.8306526522119442	0.07932708377412472	-0.08906977316376183
Si	2.8375908639165197	10.678755787840153	13.154103898028037	14	0.6699068904857544	0.1645186016729752	0.5010081537893748
Si	4.319971653832178	11.984808129465737	14.457538754307896	14	-0.0020674257879310706	-1.1455724304660257	0.28602415400306513
Si	0.05643404363047539	13.23990808083194	13.281875592551625	14	0.3256387163337787	0.5087129851022626	-1.541583842075449
Si	1.56574463533841	14.568501259258326	14.304862042671235	14	-0.7104033419412785	0.07662742318796924	0.5850794411002368
Si	5.460519784479742	0.06400670521893416	-0.0291218009053323	14	0.49181979470676157	0.46928919878630404	-0.3439845812351633
Si	6.872935406330629	1.2851356370981268	1.4202217214113548	14	-0.023412227934736393	-0.6160291213915193	-1.176225662313895
Si	8.028594092797578	2.5370336803943516	-0.11070423315161199	14	1.500497836170015	0.3129549395684242	0.24848627343943525
Si	9.457419907404216	4.032157534640217	1.1536951585605404	14	0.6435384056539116	-1.5723406894677205	-0.2850710452608863
Si	8.307444856099744	-0.11490446105933388	2.536922755967936	14	0.4225596167031446	-0.3459033971355898	0.3328432105513656
Si	9.472919526510282	1.2447459011750746	4.001179819077985	14	1.621367811264964	-0.17844422230796125	-0.8342401154651469
Si	5.616737799819444	2.5490118628588245	2.770589199184353	14	-0.21222443244619474	1.7803783340105863	-0.29929157167609327
Si	7.032941408053014	4.054264607266079	3.9105595294614828	14	-1.5155593711354425	-0.28681579733113877	0.28286195156981503
Si	5.59442543422529	0.0919066818452366	5.368882963552503	14	-0.3571111023366473	-0.23610665843345421	-0.4352156255310416
Si	6.978944390626782	1.3701534153863941	6.707845092466103	14	0.38928668564457636	0.24216598234144718	-0.5660941423057313
Si	8.261813527131425	2.711918455552565	5.236939186124911	14	0.3357891830271913	-0.22227565447424966	1.0725468687210518
Si	9.724274276768915	4.041372539975015	6.494290737788512	14	0.024951291579377033	-0.49138656346031667	0.710654281820525
Si	8.43375963278384	0.07444684600966898	8.00353179478138	14	-0.29927665926523633	0.1207928419353449	-0.5092169217450117
Si	9.732472750792976	1.4502805853816343	9.260130053698425	14	0.80845938530949	0.0978305574316344	-0.14717932450442858
Si	5.631017250234935	2.7489605916216897	7.941948871059058	14	-0.2970079159307377	-0.7186817868510914	1.2618131304320483
Si	7.034297334996815	4.008381628852754	9.316756145589562	14	-1.4270979214904276	1.5079067332605538	-0.7630120134494885
Si	5.6471079144190695	0.30945762705071045	10.668769278285806	14	-1.5042598774744556	-0.3665761123517084	-0.3388166595416656
Si	7.041934564534978	1.5660442968485786	11.917525014696396	14	0.4275763574038176	-0.3023295897223802	0.5090577703256944
Si	8.38643960359247	2.757207077710914	10.507157355763072	14	0.23146272800420276	-0.36318945242400935	0.729700001590054
Si	9.577766287711748	4.162843064842793	11.829969219308193	14	-0.476963691056414	0.9685523433948944	0.12784152717053085
Si	8.381679786787307	0.3213762083308405	13.4057417539123	14	0.3147729681403009	0.3619962024449287	-0.5835822864723146
Si	9.675341704423378	1.8275842272760352	14.626749827834352	14	0.158299097903537	-0.8288053130394177	0.527508022103077
Si	5.6428530520923665	2.8811046952522132	13.145428614529235	14	0.40502596397239493	0.6005634086697645	0.9468635273562532
Si	6.95237054035211	4.314387353976937	14.580145012855096	14	-0.44709207522586963	-0.19199780400312183	-0.6745839881736356
Si	5.583362792175863	5.0230454358142556	0.012501348415927468	14	-0.8771606050165068	1.1228307467987837	-0.3971491257135892
Si	6.864048207509718	6.600741764201875	1.1822341923300754	14	-0.42539040366062775	-0.9069178066603045	0.12481687887190862
Si	8.323737502075264	7.678965267499739	-0.17052561075890998	14	-0.2263572841699847	0.5498504131140999	-0.7282013042989397
Si	9.717019488163618	9.082217207257903	0.9877455942884036	14	-0.022144930122435402	-0.3524432606279185	1.2651735650854818
Si	8.248489351253873	5.366851556519482	2.5351231313184703	14	-0.26054912826997395	-0.2250010261136066	-0.5279014012170598
Si	9.596393313407365	6.5128581622997865	3.8757590601590333	14	1.2434492677934226	1.3482693750378796	0.17405071753689222
Si	5.4838304699116405	7.653831779180021	2.697885687816715	14	0.8940525098593475	1.2555481180984436	-1.4221138338273207
Si	6.954478104454013	9.056709555947586	3.7540584084961526	14	0.5713685077594831	0.6262922024979544	0.7159936962388765
Si	5.6113488594017715	5.318615986913066	5.334628838439864	14	-0.6791937229021292	-0.3030438427803174	-0.3189978084023682
Si	6.983111506765424	6.726177423416912	6.546259659358631	14	-1.5370885215337022	-0.9030457220481616	0.9036350193875395
Si	8.318130023981666	7.871811521795072	5.280737778674686	14	1.4050992872607087	1.4651407671389347	-1.128619333316565
Si	9.796434755123652	9.286453910116547	6.566790611776312	14	-1.402155885890203	-1.3419285150973304	0.8954756166540496
Si	8.24603576916509	5.359270616988753	7.824988169139893	14	1.4401236552633618	-0.16208839292437124	0.8403248933158094
Si	9.769995007513751	6.76459700907974	9.159930529287253	14	-0.503963382244353	-1.059892659666879	-0.5790453140243813
Si	5.535993095330873	7.953152238127073	7.874937272796169	14	-0.05162985171282955	0.5960084384845903	0.06827107378695597
Si	6.9530940325064945	9.251802443774956	9.253567301066889	14	-1.159037051917109	1.2113605878453144	-0.8847037138047571
Si	5.674949945449483	5.393933672449523	10.764520236521163	14	-0.21261986844443354	-0.5619083828445303	-0.8579079112687059
Si	7.121881275388736	6.748642103148831	11.971083301182327	14	-0.4669584918135898	0.046600255485555866	-1.072014135698717
Si	8.330432701783117	7.994548571830139	10.457135406214821	14	1.1505434054919998	0.23217595262001184	1.179406890926514
Si	9.712441786088393	9.433008255650426	11.869792743979987	14	-0.769877378875348	-0.2771265869321607	-0.30737718368689493
Si	8.457797121547031	5.62244957998564	13.330127718042583	14	0.47745322950937025	-1.1774651921887385	0.6326492604020205
Si	9.893839646224523	6.83269301777998	14.716399942616828	14	-1.2557743753666166	0.3968711892284812	-0.9690601366956236
Si	5.743395283313511	8.132391210919227	13.06602990345374	14	-0.6724980504273995	0.5692290910225879	0.9415973894395259
Si	7.0547570971109765	9.437142260019991	14.472803279853498	14	-0.5266785835267973	-0.8298306698410928	1.0554230501783335
Si	5.491671336829642	10.10126666803397	-0.15056086959248577	14	-0.6179353388758771	-0.028260304126407607	-1.5847688983642525
Si	6.775017282809028	11.529489848443362	0.9243746350357939	14	1.076039458187941	1.408350192827504	1.7698823107621457
Si	8.286223523296757	12.90500405924371	-0.20537243653807055	14	-0.7919770575441488	-0.7647169133872788	-0.6651040657477177
Si	9.781969878801316	14.00856799941804	1.0397360385084236	14	-0.4709480759388635	1.3822984681711035	0.6395578203972583
Si	8.36990855287958	10.399759332754037	2.368652056683333	14	-1.0747595619595711	-0.3290037789767885	-0.41170441004147956
Si	9.741820203204089	11.737185075582353	3.6303230386233425	14	-0.9792301437894695	-0.47289286000302355	1.4899187662197337
Si	5.2811003525461055	13.034027378638502	2.1699052851380505	14	1.4885576230632471	-1.3987234602878056	1.4102235001637637
Si	6.78526868651601	14.251121641455368	3.645479950919438	14	-0.8625420714977408	0.0819485827585477	-0.7500922092157445
Si	5.490293887235939	10.409798821138912	5.042023446262114	14	0.5319809740285387	0.18585363361956397	-0.02227759915695505
Si	6.856223896476256	11.764909559832534	6.520535125960844	14	0.6515576831474535	-1.333532827784919	-1.9237699061573728
Si	8.105618690030079	12.97812477890175	4.954052098171964	14	1.6110551078258502	-0.4848778103423619	0.8488383372518836
Si	9.636216838079159	14.138367789797742	6.4646143147511	14	0.5303809751878106	-0.0439095937680209	-0.9058022040618924
Si	8.319610120059517	10.608336988538994	7.878414008549505	14	-0.17109343219765788	-1.2004922685465167	-0.3683869418286887
Si	9.603773926735164	11.858950295194937	9.245635376783918	14	0.3157152782401351	0.11006670476075113	-1.0524557375283508
Si	5.631975835949784	13.114942608737831	7.709025787058473	14	-0.48869590174278166	0.4060508065530059	1.6044185707734842
Si	6.877738268435596	14.487395636486788	9.049938199170848	14	0.2440500883200517	-0.11301010613125664	0.23294934110031237
Si	5.51683793691844	10.713759894522441	10.542505824843785	14	-0.15152372116388277	-0.7309534154336261	-0.6986019685217989
Si	6.951368909337457	11.92048686244055	11.838323318646925	14	-0.03368636479404811	1.1028532584612334	0.41442952457030446
Si	8.270199082650782	13.202581183548732	10.370907392766703	14	-0.2605139041270879	0.9308576254067353	1.7582215768036782
Si	9.751576585963335	14.483476858616243	11.830015575784904	14	-0.7407788944145721	0.6247081445102112	-1.0490024859728597
Si	8.357086020303582	10.754050295138256	13.258157632360051	14	0.843166993136701	0.5587862896542745	-0.8228449766862506
Si	9.770014874575198	12.086070541664359	14.552041398848957	14	0.24072256381471607	-0.3449834556520408	0.025870461731329973
Si	5.608156884862518	13.375308726951422	13.20525330331344	14	0.552040480625802	0.14479385298839517	-0.49497119849766713
Si	7.003963643343177	14.735735560170744	14.618465263210686	14	-0.4611431658004788	-0.5877698457072398	-0.4271935198216475
Si	10.95664630983902	-0.10891785320977836	-0.12354166602369536	14	-0.6693618161578829	0.8401413163959507	-0.29947360593275973
Si	12.424702948450928	1.2018297372712643	1.067189006252154	14	-0.05670058562522558	-0.3804955623339261	1.5844606228363665
Si	13.761569102381802	2.130033748401091	-0.6101571911799197	14	1.3131354779485882	-0.2997641408339365	-1.0215176272110087
Si	15.102400390659932	3.5737731038010896	0.9240534508757238	14	-0.37702071349374594	0.5032740689080214	0.04212576089690217
Si	13.89993325183389	-0.21008258568961521	2.5401726761030785	14	-0.4976906565947878	0.4143189670415381	-1.8707593708876238
Si	15.123121735749821	1.1251991700908088	3.8196958683422473	14	2.014030872415959	0.17028893334298353	0.09004807873807817
Si	10.864534335025489	2.547064890836956	2.454390015949077	14	-0.2030291313792172	-0.3159950144989672	-0.05375641292312402
Si	12.32863742840932	3.7261849212851135	3.82407158862609	14	-0.30231442020099136	0.43217220816358237	-0.13403711966049167
Si	11.07453579688086	-0.06277163623227255	5.235690872430617	14	-0.7512625763574758	0.10968412428911309	0.5911629333982391
Si	12.427737642087056	1.2206223218122776	6.66981125891305	14	0.3590648852694278	-0.004531830237293004	-1.1068883511506735
Si	13.720969106725095	2.374610519529171	5.0474637099218596	14	0.13044631397037285	1.0236405888738551	1.748616184438137
Si	15.185654967244723	3.786752969285152	6.480847359542276	14	-1.455148680533243	-1.4728363424726698	0.2171995212406813
Si	13.863371236416416	0.11696235750761859	8.093552761377545	14	0.4203003864583305	0.2053374697356461	-0.7718915827831521
Si	15.305474870423893	1.4828989891017512	9.266186196263048	14	-1.6390408179040663	0.5366431593055633	-0.4410888014138559
Si	11.166190829281092	2.6608932194012094	7.8929682866483555	14	-0.8067781395406453	0.9774812779507046	-0.16393984586540988
Si	12.543236459401363	3.9705398435603616	9.261514125645945	14	-1.1149809051458397	0.8179269664298713	-0.003077098847153221
Si	11.168536798120368	0.2797431254788569	10.615662967447811	14	-0.46866544863563603	-1.3994693379411802	0.24767766081624865
Si	12.475817586378797	1.4961734973256826	12.022689648881025	14	0.027935830635004922	0.5385540047794972	0.5264767517591656
Si	13.813228428911028	2.703032912320108	10.605976119403634	14	1.6668326666411426	0.5211401655566663	1.0667755086089155
Si	15.272748853454267	4.086578382710665	12.143923424599887	14	-1.0256121124333446	-0.5923659535775364	-0.37807692355926276
Si	13.914315348733528	0.6006772916924875	13.698466348458734	14	0.09346790592440715	-0.052863982266500624	-1.0430375216301162
Si	16.911062897495544	0.5460544618306552	15.480993735959977	14	2.042717980025511	-4.183571707684158	4.690906837445354
Si	10.97060457609444	3.010685947955991	13.098562216574251	14	0.6450049641285241	-1.4650014132305826	0.5438746501290117
Si	12.299732509591458	4.194463148725166	14.477773356392316	14	1.5413668407864287	-0.10619693414339626	-0.1930565851739588
Si	11.069436584442633	5.0474918549255765	-0.19093239404254422	14	0.16184310947682912	-0.3018809318440144	1.465790228342804
Si	12.47352459637005	6.346544368567775	1.1386806268714866	14	-0.9734940078202189	0.19814248860774372	1.1001299437061323
Si	13.732304920869428	7.683350921314306	-0.1611102792211826	14	0.6208787402463827	0.2138380581451197	-1.2541229544194854
Si	15.059341846149081	8.928883227005015	1.2859270083791243	14	0.14095313586115799	-0.1466239657552766	-0.8148357265034573
Si	13.762080679214078	4.898881268531867	2.446087239852418	14	0.9188253667295064	0.40982004695234303	-0.17798759400310293
Si	15.296581049249166	6.260286554527484	3.8314224013617166	14	-1.1138341921730537	-0.18382734551675525	-0.53801073022535
Si	11.079060520125559	7.888892227874681	2.535962514664633	14	-0.1189285334677055	-1.0659969779179745	-0.3361401389033915
Si	12.476428498518313	9.107421885881141	4.0138483819277635	14	-1.0548370952758719	-0.030218200827700374	-1.2590401933442685
Si	11.09491940192614	5.281143397845909	5.113526656000624	14	0.12854523869665535	-0.4607428447021318	0.20170706902359703
Si	12.45487604802453	6.553246242634384	6.513608143869434	14	1.2702910931147047	-0.981583476489001	-0.07224497416977683
Si	13.855234019165154	7.687125662989358	5.00875108510268	14	1.0156830179079965	-0.2974270060979219	1.855955717785807
Si	15.24321646661235	9.097120814520538	6.5254075227808785	14	-0.5289622392721528	-0.814640322499126	-0.6411295370794649
Si	14.000266878909835	5.143414994360144	7.9124694630476675	14	-1.0059855799719943	1.0716768066807136	-0.5902483912358625
Si	15.21685949842515	6.699797276991354	9.173145436326841	14	-0.49094356201365513	-0.9152039648860779	0.9107744646405267
Si	11.266080758651373	7.938799941819607	7.8569310927707905	14	-0.6378567771174485	0.9923427809222245	0.35950968648981346
Si	12.542877196706852	9.399120015586115	9.236827646208798	14	-0.6467435455460082	-0.3170203713006423	-0.5024225188259882
Si	11.005880199283178	5.371387868883359	10.545404760226685	14	0.9767433707238221	0.414839101647804	-0.5535476625644727
Si	12.293365116397487	6.846800286996259	11.897202666423915	14	-0.23141207722939583	0.42131777283351324	-1.1288365917161178
Si	13.861197448776354	8.035516108123627	10.51518033741101	14	-0.550392402115587	-0.7350985514307689	0.14959616350536775
Si	15.241665180230981	9.22525177173864	11.871521178325933	14	1.2503025490242772	0.21673337984613847	-0.28332937851701795
Si	13.627416769956612	5.55498269489791	13.112980736419876	14	1.8310252521595234	-0.8722145697121378	1.1817381121202923
Si	15.193946154222203	6.814557701855193	14.448212824546681	14	-0.15465198500690694	-0.5815333726426886	1.2168493834827667
Si	11.002951463308106	8.211645885799225	13.29680237805262	14	0.6879179974744556	-0.1457194509036485	-0.31383271492472276
Si	12.478476461435873	9.520444848669946	14.508794117254352	14	1.6717545335555024	-1.1195731563581564	-1.2625176132897689
Si	11.161394589529943	10.27456538945328	-0.26362762746791296	14	-1.2914055242248246	1.5193658925619216	0.07293043084812832
Si	12.567869960007984	11.503881206237354	1.0597421693861968	14	-0.5117165503372596	0.3269713202212114	0.0713255469072919
Si	13.952077665780129	12.764143282403035	-0.23929544395991584	14	0.17040206197707006	0.9788848443449735	-0.8664504086948979
Si	15.46846755371724	14.29882576716806	0.8056374867055195	14	-0.932517273890891	-0.17333492181576296	-0.2277775627488345
Si	13.748428696822643	10.295439048680933	2.550202230957229	14	0.05568268502897896	-0.13836711813015304	-0.092753395755938
Si	15.163840933775214	11.666723230981388	3.645764712133521	14	0.14351549942321756	0.6376816848451464	0.2577149988755747
Si	11.218840197705793	12.83808351834579	2.370839089031027	14	0.2661950184424871	0.22037072254255194	-0.3618565914260446
Si	12.497356792164947	14.16260394917541	3.71878112971896	14	-0.2740492309744754	0.2643983300447676	0.09089474372000295
Si	11.015141561094685	10.441230167937533	5.169955732865739	14	0.11683436818444491	0.6939629231926557	-1.3085532540470202
Si	12.46673999488568	11.67764183683532	6.367709411363328	14	0.002016003681528109	0.3433456615631065	1.074084132591968
Si	13.864314921835179	12.950098977552946	5.111700541935895	14	0.48347630083234905	0.4996835203284345	-0.06449412007165843
Si	15.155283197056644	14.198094798863163	6.647098240913035	14	0.3946327849367603	0.5647034314380632	-1.9327777736465117
Si	13.916914622606262	10.525453263767893	7.766562452599293	14	0.02536292554113274	0.06600104489979725	0.4849390026489813
Si	15.268801930580004	11.67015526584647	9.355569761304436	14	-0.10091356982102397	1.0178322048451085	-0.5078773758732145
Si	11.148919730529279	12.887357141912846	7.9058073751088935	14	-0.5916092772818168	0.42283061120388826	-1.4943966032453035
Si	12.46862902131166	14.339207225148844	9.034536259783565	14	-0.59003113283631	0.6345994437873529	1.131947629153497
Si	11.040074723211474	10.731186618588929	10.481345076177226	14	0.7808770816560054	-1.1551374564780403	0.6013964467934926
Si	12.424780761108265	12.07144176208508	11.741761122069125	14	-0.28583157821458605	-0.06307949792451298	-0.22017480431715666
Si	13.85357677512273	13.396793298318592	10.583811101181881	14	0.9045318209232073	-1.2548078968767729	-0.6933096053308061
Si	15.145847998457468	14.622779726721731	12.04853504023595	14	0.9704449340210554	0.34956105156403244	-0.6965695097662219
Si	13.804619368950384	10.704440587115045	12.859407497632922	14	0.44249519602397686	-0.5555762646620697	2.097426473248686
Si	15.254899954332018	11.835285313833891	14.386451097271332	14	-0.86832397314169	-0.6424078906446425	0.8736888415027108
Si	11.15140973556405	13.298870208031628	13.160989490408099	14	0.21719695013536114	0.21571419369723174	0.888139996065135
H	13.034537299882324	3.0040304823710313	0.2722234427209252	1	-1.5134824322578269	1.6119706784303551	1.8294105980184703
H	-0.6483532724014616	1.9481425229056768	14.738068284302388	1	-11.838753434176654	26.608673377082376	0.7413766764015065
H	13.040576886562405	-0.5013353621004716	12.817752892131038	1	0.03368533635192006	-0.01828698658955321	0.016165310479367017
H	16.087924185243107	1.3493890249967024	14.608770137224239	1	8.654099595049935	-25.88588322104022	-1.6546885648824876
