222
config_type=vacancy dft_energy=-23114.891965359133 dft_virial="120.97493111155336 -22.398604804312498 71.68468784976017 -22.398604804312498 -7.792085215170378 21.845296030357527 71.68468784976017 21.845296030357527 44.044210450084776" pbc="T T T" Lattice="16.988499519999614 0.171205778890674 0.11513958157607401 -0.29467034128012803 16.069081843067224 0.6306767607622021 0.3629181941930821 -0.46047337752048606 16.578961433251607" Properties=species:S:1:pos:R:3:Z:I:1:dft_force:R:3
Si	12.678018138058537	14.424063935367657	16.068548364704895	14	0.6055716647228809	-0.7643240484943601	0.21420829731122099
Si	1.4043070338955483	1.3485466522026643	1.359705524443946	14	0.04121713227676184	-0.5974675407537743	0.42638156476154476
Si	2.7854553303488143	2.7696803411952975	0.1610510012740266	14	1.6236987753482106	-0.08910551152771189	-0.5504836763544523
Si	4.182025229014949	4.132853474994367	1.5971713547064201	14	0.23055178538927432	-0.5747659663295268	-0.378427622324931
Si	2.8387318096030945	0.062107754819167214	2.914817037310359	14	0.5931426844947532	0.03748697267829101	-0.9949043731526882
Si	4.347979474090488	1.3250005483062084	4.331098451771765	14	-0.3314244746357079	-1.1782612063958562	-0.06087734621780614
Si	-0.026244077270261405	2.5467645386238003	2.74185621654617	14	0.3949102072008042	-0.2838975927927707	1.2834492388116265
Si	1.3747210714702016	3.6743899856988262	4.462709602528597	14	0.038610288592663695	1.0208892490707644	-1.2700344968037538
Si	-0.04461849920836441	-0.05927726134261801	5.501402167832935	14	0.7255042148181043	-0.5747628810031427	0.0454478860810655
Si	1.4849149348528574	1.2197235205304755	6.956083830527813	14	-0.0015943424090238238	-0.7942871956743017	-0.15018726061846982
Si	2.9938312990833924	2.52583145931734	5.701442961900075	14	-0.7089275274875135	0.2173321902752009	0.5464370136910712
Si	4.315848446102193	3.848354901087649	7.131156478057519	14	-0.313125918072214	0.8598760923912793	0.2718000280404099
Si	2.8870014075396124	-0.23920218340355043	8.293826696405521	14	0.9131748485674168	0.5928153827874983	-0.2967338361036099
Si	4.520274296389606	1.009743718757565	9.72960045879997	14	-1.2863512453864776	0.2919654641768633	-0.19484247492933365
Si	0.15534584095334703	2.4251807423078997	8.467888453407888	14	-0.6801745995817656	0.35647681065416675	-0.5177095397279927
Si	1.5790296924359564	3.731699833208405	9.795097670093156	14	-0.1382521897223424	0.5460235799555914	0.7697822479785025
Si	0.024098270991220805	-0.35633976037483567	11.227522751429815	14	-11.150978390158	10.249804689893438	13.036086328505775
Si	1.6268439648912532	0.9141508523361721	12.44810085672542	14	0.10157357255670599	-0.28790851709220167	0.5390641120750146
Si	3.0049663856652074	2.298941752639211	11.135550402174404	14	0.11633145998382395	0.5241663565184805	-0.5413783639736799
Si	4.346453793933261	3.7130077028188526	12.496322883343003	14	0.7972714776193977	-0.31066871271774854	0.12569671111246333
Si	3.1806523634140205	-0.38369496773733186	13.717714797987508	14	0.19174634990281136	0.2188635406038811	0.7981356261174994
Si	4.650935719743443	0.9166109691153097	15.297682324996728	14	-0.6029285684537687	-0.1975642470212424	0.26485367279696587
Si	0.15693268423491782	2.018727995387869	14.0502434142604	14	2.052491265568458	3.859661545457116	-3.6136723295046083
Si	1.7105830780197986	3.5025233052701106	15.408443646255234	14	-0.5499342311475367	0.37364125266094333	-0.9341396413479044
Si	-0.10480641151342562	5.2759650853579565	0.16315773111251464	14	0.45110197108317257	0.5734693579165762	0.4663334561102618
Si	1.3811567913316474	6.694582591374138	1.6568597681626784	14	-0.05948894934492618	-0.8864842042389597	-0.6238049152112431
Si	2.6481084377091304	8.162342968824404	0.27441345429279546	14	0.17251756743448787	-0.7292395166272154	-0.03100855860311389
Si	3.928391946217755	9.427716266798697	1.7629607991413685	14	1.1734264999518496	-0.5934399042697623	0.7225477008104662
Si	2.7325798093541183	5.204596214127823	3.0072464110226678	14	-0.32178000146930047	0.46065876955816293	0.9731664490024321
Si	4.331862990826055	6.379109991914618	4.495017323987216	14	-0.10905985991738114	0.7210484892982877	-0.5534759287260407
Si	0.050097695764109405	7.9421829047997035	3.056407971189191	14	-0.053765154681212526	0.19535823865655536	0.3463348286083106
Si	1.4898164796786946	9.196786395962564	4.569147030691175	14	-0.43865602155993183	-0.7209811263388998	0.05416804688487972
Si	0.03285479162635561	5.07076790011355	5.85735795970495	14	0.3035675769340315	0.2801049553350202	-0.7914144997001002
Si	1.412083245565516	6.499822213708627	7.170720524629187	14	-0.5890006338239946	0.9713849301261015	-0.16637751081944227
Si	2.9430013448028403	7.7761929812349635	5.847192988234245	14	-0.11700174714078654	0.37277556149964947	0.19731664957891215
Si	4.250116776165691	9.286638423574079	7.26424403867697	14	0.17360745897969865	-0.8286896133000112	-0.18178485945042963
Si	2.8230536620631206	5.369123319635356	8.538266821818798	14	1.2830010951543247	-1.8990780391047983	0.335801267222196
Si	4.492540217451317	6.424129449382565	9.920437901629136	14	-0.620469163168883	-0.28947509156376783	0.2340996536205466
Si	-0.008985882351421802	7.892367238997843	8.633530086959007	14	0.5244962293310556	-0.2867576903509033	-0.5188891628488768
Si	1.5905487475205924	9.076439453938939	10.000072289523981	14	-1.145477042458648	-0.12336060481857677	0.45145575517522496
Si	0.053069204221783205	4.943648841044589	11.344837021871426	14	-0.1359556784503862	-0.07223391841690019	-1.0137528891441616
Si	1.4886373905594115	6.190642620153751	12.742247913497279	14	0.6001461182763045	0.7181158865701268	-0.8257115020076836
Si	2.94200914300794	7.602873676603096	11.293835471047577	14	-0.11157825757846619	-0.030533161229418515	0.6218506180573986
Si	4.324581181077861	8.904192202958752	12.76355986437953	14	-0.4594392943048167	0.7181397978496042	0.45400474898961973
Si	3.131528180712374	5.032671768526116	13.966740458750847	14	-0.4968123670174251	-0.5802161953871767	1.1740139975175037
Si	4.488598593882533	6.39549491333589	15.485352877165456	14	0.13117779343395497	-0.002190581732766163	-0.1626118699675534
Si	0.22274250705252482	7.626394295864409	14.067025895989904	14	-0.7091316732499334	0.19665844661695425	0.5326044670686746
Si	1.570590880252271	9.006072978357762	15.557185568755191	14	-0.10243489283895559	0.11565294528983686	-0.6122279992862124
Si	-0.0702305575270794	10.76816220297724	0.4561273977407665	14	-0.6681356560307042	0.45508667010833803	-0.2151837746696852
Si	1.141327685903579	12.065476243664092	2.0790824073091976	14	0.7022907333246153	-0.8345512192088846	-0.7128955143280982
Si	2.326387005712546	13.521027781905186	0.660799599501228	14	1.3424018555867698	0.07294945702749742	0.10487358623511603
Si	3.9577723325862815	14.72756725118835	2.1347850238290906	14	0.01956713992845494	0.06437662055852768	-0.15645587249952284
Si	2.7425052252544786	10.659480427946402	3.346317782624606	14	-0.1988158610910905	1.0072364227102462	-0.9364808898524313
Si	4.135068939276133	12.159103395228122	4.537634429849018	14	0.02649858276104215	-0.8402660150039779	0.7404875881817993
Si	-0.20919317603482984	13.39485505228787	3.3528010738049856	14	-0.753662703173834	-0.05339337285191911	-0.010617122309019476
Si	1.1991404302133124	14.669820766929988	4.699728602188231	14	-0.3694727196053872	0.3519604070487946	1.310580827702489
Si	0.09603290112152882	10.490218277229301	5.931068019416886	14	-0.6901350615920193	1.1502870662915812	-0.40241937739882877
Si	1.3335480949331708	11.938438735427592	7.331419837938241	14	0.24890304961183118	-1.0186469881210634	0.5684405330208986
Si	2.688907639597397	13.286084930521868	6.0390005461745195	14	0.44095073305816396	0.8504740744565618	-0.06770234529013922
Si	4.176026145902286	14.4333267507543	7.64535996133783	14	-2.507702891395356	1.7554684372268634	-1.5688355015847626
Si	2.8300517428733882	10.50049708007031	8.67488995082042	14	0.4168507344502879	0.8865780495831451	0.034669555468472744
Si	4.3646549203523906	11.82636920289841	10.15209153610333	14	-0.5872607668538504	-0.7927491604717892	-0.6845161680253677
Si	-0.21978968732728923	12.959757575467107	8.80905975894561	14	-0.25936899092802596	1.0306242251444413	-0.5083717994262789
Si	1.2681579191075851	14.331500342576929	10.033006933007119	14	0.8326352315243105	-1.0707697207237654	-0.09816505823378568
Si	-0.022429876877192403	10.306047614953545	11.425721855863955	14	1.3900238683265524	0.49873915334434415	-0.11146435761278362
Si	1.4196623760570442	11.861464943441673	12.744493959341213	14	-0.5708203481052275	-1.8806061900427264	1.0447339369203499
Si	2.779719588465963	12.99799642101134	11.367076613472882	14	0.4878880604511912	1.5694991038678932	0.20640730665935975
Si	4.170747428476333	14.36826107928287	12.889849823318505	14	-0.46873178315289593	-1.7189286597485152	1.2955061800999288
Si	2.910977352282147	10.406983759876587	14.168261060631957	14	0.13363808411480466	0.06590334289763161	-0.16355597984111175
Si	4.218510731661343	11.77410361417147	15.764091923529856	14	-0.6030165002557178	-0.4645650498710639	0.19038366408313284
Si	0.05929255212370381	13.041996493073567	14.290483671802109	14	0.15796511132244978	0.03256407732180348	0.8740603662214722
Si	1.4196657740083964	14.501586496496987	15.811948670377058	14	-0.1511905059143916	-0.4932076773585775	-1.048919953492083
Si	5.738072877478947	-0.009543146373215402	0.21710190780754085	14	-0.455781382765842	-0.12496626009100924	-1.3334443817619057
Si	6.977203797158656	1.395460467549575	1.6065700881471583	14	0.15921004051846546	0.08691750090026588	0.6026336626735478
Si	8.311820547792156	2.6846381137231066	0.15824769140829661	14	0.13229339603236723	0.5917997961860398	-0.49698925906345137
Si	9.848662975212392	4.041032334574139	1.3604292880820072	14	0.5429485379926943	0.342747108244576	0.9928356618120968
Si	8.501980099326518	0.08084915550332941	2.967786001967246	14	0.290275990870994	-0.051307177995150964	-0.2317054403464247
Si	10.160584715508651	1.3452948127584174	4.255276565294311	14	-0.6948502116386389	0.377126643032936	-1.064125984576503
Si	5.521368529979637	2.7774599508166173	3.041361842600763	14	1.2152339580101177	0.08363831317494902	-1.2532238388890296
Si	7.213667231772171	3.971962177433904	4.200990894488369	14	0.3187278423437526	-0.306474725719523	1.0635953084384242
Si	5.68928848991254	-0.05556160153876861	5.750878057150467	14	1.0267130597314322	-0.4590687980281834	-0.5541022499820287
Si	7.275329854964174	1.2615862811920435	6.996502461864611	14	-0.028387316729222928	-0.27186636255766977	0.2742436065366787
Si	8.740186682983813	2.60714103722892	5.6631956214774615	14	-0.561818137047793	0.5448701821089729	-0.2353296704057055
Si	10.049279722033763	4.039352047630377	7.110519020518717	14	-0.40749473930080105	-0.38932242400852646	0.7891321295074049
Si	8.678501973108022	-0.10372756195903862	8.485083786226708	14	0.2639265322185204	-0.08369050661294804	-0.7875149042610317
Si	10.22647099223169	1.2036936850255286	9.85326380134354	14	-0.4457535577962006	-0.5927958423870653	-0.3924956821946532
Si	5.768708806872186	2.5088128199688446	8.38643446256383	14	0.7878604608160596	-0.09659154177785505	0.3368687901511215
Si	7.443134284551096	3.7121327303456093	9.71305753264081	14	-1.4572037650156375	-0.20113936896890833	1.4572505591324643
Si	5.77215432954352	-0.3052158833023014	11.158377839359828	14	1.6173728278185182	0.554803133292301	-0.7932350993772972
Si	7.188931844902376	1.071985692655152	12.517532895684685	14	1.1108126292008156	-0.13209516381218384	0.16072879243107696
Si	8.813663983028112	2.3689021730337747	11.251437533048007	14	-1.1520102210771441	0.6318406477788339	0.30617827727610986
Si	10.023302383944666	3.755956108937512	12.8499170990251	14	-0.20700457442523013	-0.2604858790790983	-0.3068295382537034
Si	8.88279530329269	-0.22765934265944762	13.864801918178847	14	-0.6140174885890355	-0.4929173995679329	-0.3092723454183761
Si	10.255966908946197	0.9745919120169871	15.39496907016729	14	-0.7090056890892461	-0.2360128130892688	0.5050177925361458
Si	5.831599789478081	2.438529594195803	13.927320825111654	14	-0.16201177398583086	0.37799156286263386	0.25473045981994685
Si	7.220719679804078	3.7566781735998975	15.394230015748144	14	0.3612593236601742	-0.3442321786774935	0.49509615421622644
Si	5.5974673494923115	5.591349338082315	0.33860585226666007	14	-0.2236105723564705	-0.5125333904974707	-0.22312643322468664
Si	7.031073218923929	6.825159065944165	1.8303761539729844	14	-0.05979285399376768	-1.2262105208428937	-0.15626895314274808
Si	8.334561337218092	8.12390364415038	0.5432338806595405	14	0.425672968135312	1.6650370066855513	-0.6904785612627911
Si	9.867711890493943	9.490938549661452	1.9352403306594008	14	-0.5792790274979828	-1.1424572792601342	-0.20598307428153528
Si	8.635201879024388	5.410546045596788	2.9616764854356314	14	-0.4268767596462053	-0.18739346859580064	-0.14210961903416058
Si	9.927831843771958	6.755377037995602	4.458509734657031	14	0.2738047188585294	-0.9443461581372963	0.24364565345319245
Si	5.621040636999586	8.057529761408274	3.1507079171209953	14	-2.0759495162884254	-0.6300077067961004	-0.40522008242406604
Si	6.908441154615812	9.330438016506514	4.471046476171711	14	0.3529058024750131	1.3229409023080367	1.277381687366609
Si	5.871693916460726	5.0965515549755604	5.82549706884917	14	-0.11130726307772258	0.5436075122862484	-0.1419792639944291
Si	7.209316155065424	6.6100585514831875	7.201212041089949	14	-0.08487475772340825	-0.5487019003675897	-0.7476920823993862
Si	8.439977680999274	8.049189489813807	5.753980386735208	14	-0.21614151140144036	-0.2923578148487179	0.21192952666597378
Si	9.769774437639397	9.328645597168123	7.1990577399325275	14	-0.12782970008605815	-0.34684570723542407	0.8339246408423647
Si	8.579927404374898	5.337537662839121	8.61914146195727	14	0.9084159897303549	-0.2579422845858758	-1.0646438051879805
Si	10.108699697333181	6.452157451112836	9.987659573233666	14	0.502852407635517	-0.295987958450235	0.420515845084159
Si	5.749187576352647	7.770452142425084	8.528762751886132	14	-0.3734023969767015	1.551734565879394	0.20757613113789902
Si	7.0717602884175665	9.175678322161456	9.983955806259548	14	0.10148101276518066	-0.46878294814876686	0.8707703798538109
Si	5.922559549230477	5.047118158700846	11.291354966560325	14	0.4029474824315871	-0.3119802335415561	-0.5650016796552004
Si	7.420189618044015	6.391070780675065	12.680366122443044	14	-0.7968840120476514	0.6743415329419457	0.18198026345476087
Si	8.756751695826765	7.854364551072601	11.306037514354045	14	-0.6647927048934477	0.1628324708040221	0.45645295547546477
Si	10.089226038132578	9.14733940788244	12.911720737198229	14	-0.5475274194573461	-0.10659905501546742	-0.47263832057632893
Si	8.71820873363649	5.195216169419523	14.251616205257681	14	-0.05865308300534604	-0.4493623612235604	-0.5694712891437459
Si	10.113441538445455	6.583980973829194	15.558250826504167	14	-0.6242499735421607	-0.18087468816709723	-0.16785435371533533
Si	5.923383552433434	7.792645861683284	14.139465121896043	14	0.011757150407973135	-0.6455906619204539	-0.1626663774003405
Si	7.133395727998749	9.145723682014372	15.72577322612884	14	-0.041423077812905704	-1.394459796335404	0.6897617370995339
Si	5.304416132031602	10.851323664375878	0.549302621774927	14	0.720254789085958	0.6583235467974232	-0.156719410794838
Si	7.0294065237855765	12.114094131614232	1.8571469137028678	14	-0.7923876630637764	-0.057801532923313	0.3393699614065615
Si	8.331098824789997	13.603747509628011	0.5554716024552091	14	-0.08438136261247181	-1.0805332360664957	-0.44401240527339625
Si	9.56722765444986	14.830657697268812	2.0660376720673344	14	0.9324640520107639	0.5610432059043006	0.8346157539524205
Si	8.389890179089223	10.720490644478744	3.2768347743950548	14	-0.3540602287637596	-0.07050510719963264	-0.4361481654306594
Si	9.70685287347133	11.940570949901222	4.755820284137974	14	1.3387930521594098	-0.6891552133545109	-0.5402995281813459
Si	5.701595869710934	13.443918071865173	3.4031332282124107	14	-0.8368125063379549	-0.007861411626884768	-1.1249375104981132
Si	6.924090419569291	14.637389020247006	4.961183968998649	14	-0.16455408292639326	1.109017483466288	-0.07371847462875371
Si	5.531093466750207	10.819814461485072	5.964746814246198	14	-0.24300930488645575	-1.3763093354383507	-0.8639083568648674
Si	6.929939992822447	11.99015895296247	7.335923822455847	14	0.4610279802821362	-0.7405822048575806	1.091931203061244
Si	8.371432507342986	13.145540565659577	6.044965649773658	14	-0.2106177487316342	1.824111807064177	1.1284676381026764
Si	9.668636114610885	14.465729614850787	7.601827107586557	14	0.23568628271361	1.2104727851782675	-0.4931961073846369
Si	8.399584534297619	10.595656707694273	8.724841534676376	14	0.2818340236628198	0.4340653130108073	-0.3513726523726088
Si	9.86180285309212	11.880693950144906	10.200721316883202	14	-0.09864971158663359	-0.629361073808083	0.28883668611277513
Si	5.612346978464471	13.262735907803853	8.769548380619904	14	1.5789738840831709	-0.7288222262337555	1.8849418449440922
Si	6.973184020708766	14.56724680945509	10.358077046061494	14	0.07198297853765376	-0.5657568132877279	0.23540526090211783
Si	5.651122700322384	10.428946418442825	11.573497061204156	14	0.5242753713840549	-0.43631580149753296	-0.5590845378714117
Si	7.030772500229241	11.566244134042456	13.143350586012954	14	1.5035605368273752	-0.010943909795210299	-1.083557884365118
Si	8.46052849077859	13.0834905760134	11.68179486773217	14	-0.3290552010831914	0.30313588835077865	0.5800950963265977
Si	10.02058232388707	14.468179537775868	13.094963758754778	14	-0.8757871205544837	-0.24627023776399956	-0.03919110128448515
Si	8.654723109543927	10.239012830673397	14.468177838800191	14	-0.24271619887995885	0.9853755997256873	-1.437433507766891
Si	9.978739950933615	11.72387169932894	15.643340625295293	14	0.22509178613140784	0.15898378325029242	1.1831241949983844
Si	5.753395939102595	12.897231872631595	14.455367562201644	14	-0.7430468664174746	1.8060698468116338	-0.16375112673491102
Si	7.225503995308257	14.32283046970128	15.785432756998603	14	-0.7298792076308683	0.7539092721740364	0.11853026925361457
Si	11.428971996332525	0.22924278798966602	0.23825075702487844	14	-1.4804362726884956	-0.43936153285978047	-0.2734833306935109
Si	12.98829866785159	1.5132181706426733	1.3399991055757021	14	-0.5035388927559966	-1.1055148666886503	1.8919311376463832
Si	14.421301400918155	2.6287520078301836	-0.004887953020427401	14	0.8812003256955234	-0.49757675662910517	-1.149834037534171
Si	15.55677441664155	3.99710871641734	1.5836373144698108	14	-0.49273305131647827	1.4632816008819354	0.2575550761246615
Si	14.164575982390279	-0.10564060857043982	2.8052365041468112	14	0.5418874428270691	1.0775384125895873	-0.9157297559240481
Si	15.500801662989142	1.3344740366766998	4.141130884488814	14	0.4411363668622786	-0.43808857861577505	0.10751642539369625
Si	11.559799919302629	2.8006611626508047	2.7996876495883423	14	-1.6999086510321875	-0.7146775474254928	-0.7849859650681341
Si	12.6460400178811	4.1086600613652795	4.282419400697282	14	1.5256311620060583	-0.3068699046072297	0.5362425810966841
Si	11.41011166735103	-0.050498654023692614	5.556098990752518	14	-0.13742429380925475	-0.995179738532476	0.7398067594930241
Si	12.705809982169818	1.3959157930307966	6.908410573053641	14	0.28455065354408826	-0.8959607842279614	0.829014601012478
Si	14.152914213348843	2.5739379555889434	5.560811949278296	14	0.07117873679351143	1.6031214481394696	0.3032158497262352
Si	15.57704999236132	3.9160013166112284	7.172546923481103	14	-0.01954837085961786	-1.0209542980353643	-0.1730487577936305
Si	14.178290114048565	-0.0010584618462726	8.30617655059582	14	0.8776887100492652	0.5536633623038794	-0.9073464099171734
Si	15.658208361437719	1.1745664460327556	9.767954834690185	14	0.545789095150394	-0.6601729428542058	-0.08536378195530041
Si	11.493497393538926	2.6490326804769833	8.55274209458002	14	-0.4888691942413598	-0.00920867081464236	-1.2861998072831209
Si	12.953058514375849	3.7239745908087234	9.961407001085023	14	0.40916287243251315	0.9444220057442406	-0.320799639010728
Si	11.617816540693507	-0.15727417834583401	11.138024110758952	14	-0.08478451192667104	-0.49161102095476555	0.24887296767958547
Si	12.895099658157964	0.994901467250282	12.737730337174263	14	1.1898538060633397	0.11632091845201134	-0.3051493209269866
Si	14.329726611970978	2.3408401917899795	11.240637144674404	14	-0.3725097092095461	-0.08744277771717214	0.9439990589190763
Si	15.667705635467678	3.600795456332871	12.701295803798153	14	0.462950909951075	0.5858381742802125	0.6085644313155333
Si	14.539183129235617	-0.23935848916576083	14.401360523406597	14	-0.11211921813782535	0.5604929893657888	-1.4986281283812033
Si	17.287539626718928	0.143920229530902	16.36234713146313	14	0.9494644574981148	-3.218453589665386	3.69610762250026
Si	11.485293039998554	2.3366980890914038	14.030061282202821	14	0.7695853013109791	0.4189279304384355	0.25378737838851645
Si	13.149013271941728	3.4583686264213487	15.427264898796178	14	-1.1079409616687423	1.4138320464805916	-0.3425295927344915
Si	11.138639139953735	5.608768935690394	0.08543299187771701	14	1.6661662361421605	-1.3787770823246286	0.9442587405564111
Si	12.820961456575624	6.814571049530087	1.5429706326842876	14	-1.2520583568474066	-0.14379909234002988	0.4680010750209098
Si	14.224967771776486	8.19873842575996	0.29551133423984705	14	-0.7463095990687426	0.4801693451695746	0.2929185729190422
Si	15.629619697734302	9.433927721870885	1.7859394451619737	14	-0.6441220465615852	0.08895150231903502	0.546379935152964
Si	14.067557675376554	5.478887342171932	3.038174564232212	14	1.1533505382805376	-0.5714687808669688	-0.4947511118822625
Si	15.746911881492121	6.585032639772762	4.429572780939993	14	-0.789446575688059	0.5225974680521263	0.25106637762820383
Si	11.359213754043429	8.015519189862877	3.1580865684827324	14	0.699192037192773	1.0420602444979281	-0.49422120707578
Si	12.75417981967123	9.484606467316254	4.6277379058606085	14	-0.09644884543258683	-1.6169941040048603	-0.33652734736460577
Si	11.46165349243991	5.3286503210769185	5.7989913493247744	14	-0.5692008088640662	1.220258669137283	0.31576078680430175
Si	12.894428562765865	6.6857139383443736	7.2615052898869346	14	-0.7251877117531941	0.5501280924886758	-1.2697442190131092
Si	14.337310839389534	8.063506757837144	5.7922039414983555	14	-0.4069452940938854	-0.4025890703499585	0.668772518818505
Si	15.627495978139052	9.429658195996593	7.312280876945848	14	-0.8177464748363968	-0.48388973456782897	0.763504380118297
Si	14.238778745048315	5.286741688072094	8.473875643690816	14	-0.1983522908018678	-0.5637495513642884	1.449795125035631
Si	15.523968895309805	6.6458984433726265	9.943097140222614	14	0.8298345264990732	-0.7947440810896921	0.7672203986375069
Si	11.219350678427293	7.929566311428242	8.48663834897043	14	0.9700903785974069	-0.12378226609108106	0.9298731491796507
Si	12.698625014035168	9.204683234905541	10.121331581485729	14	-0.3324590874165355	-0.17735098832583426	-0.7951302611087783
Si	11.52865089925518	4.827382838595195	11.453024394980488	14	-0.1963709970421617	2.018059537342099	-0.528254413977516
Si	12.846583708748396	6.414063018501079	12.768765525851407	14	-0.047615842087014366	-0.3412376123111171	0.5170788475929604
Si	14.151400426021349	7.872968334726991	11.41709445738021	14	0.3183946270942615	-0.15054001626839414	0.337034369333739
Si	15.664700147496479	9.15604495924729	12.870238547088128	14	-0.5132604990820084	-0.6796565218597558	0.4205901500279113
Si	14.35964047670183	5.068314579237117	14.183312286147414	14	-0.26656062961901217	-0.4675097367942295	-1.0268976650934185
Si	15.802315478293002	6.325709487435975	15.506053196804276	14	0.8771968576015209	0.23936219198982572	-0.23882534519897877
Si	11.50417205771249	7.863661345972768	14.235800440687935	14	0.6945853877906636	-0.5089847509346022	-0.4610711748515147
Si	12.910431214659992	9.086205166125735	15.708978851569604	14	0.45881451571202075	0.3076844307726526	-0.38277279031598127
Si	11.02810548143584	10.828915874182476	0.4776058482392869	14	0.8039352683881574	0.3176235526087491	-0.21429468644997798
Si	12.456991596438975	11.979620206843002	2.0245860635194064	14	0.5694710320332138	0.6175177913718851	0.16261649795712965
Si	13.86616789462251	13.556233955867402	0.8101599491473225	14	-0.07048479546760347	-0.9257835490574231	-0.9901601696159508
Si	15.406243472754555	14.855449150335923	1.977154060591255	14	0.2592759169154366	0.9297157975340575	0.035416718674507776
Si	14.210703171999109	10.692707295245846	3.321791369762983	14	-0.5430791501429578	0.6186387932914695	-1.024910457791476
Si	15.389326771946632	12.120823774267661	4.7737988447435225	14	0.4429631371922438	0.15487258584337565	0.5730271278015107
Si	11.003567175744484	13.36724160062259	3.434158223035499	14	0.0962642400706002	-0.13069468274429918	-0.9005288670502687
Si	12.450664611020805	14.690205077093035	4.699850928436918	14	-0.23805812737144658	0.07543468742995255	0.9439985446980123
Si	11.293130396141954	10.601276919231143	6.061477994370645	14	-0.4813924199703691	0.5821563514617605	-0.789447089909123
Si	12.53869193875608	11.952664258764413	7.437410435497978	14	1.0769169764337074	0.2929764227887456	0.41233613061863983
Si	13.858756962722927	13.508224301209342	6.199215651415857	14	0.5804679065980192	-1.1163950130719211	-0.5556122601365517
Si	15.347951617304131	14.675106280258646	7.619752999946143	14	0.0597967106517479	0.3390670851998481	0.0474340649408799
Si	14.051410610549949	10.658017609889194	8.820726624914075	14	0.16655517419706448	-0.48560311915317567	-0.7902181643946354
Si	15.46362127929118	11.780987863611433	10.321768236885424	14	-0.11408045727603429	0.4385896870426719	-0.18984373196590176
Si	11.208550290053688	13.200646841717123	8.839716076046964	14	0.09926626264240508	1.0066003312540417	0.737426173077099
Si	12.643423595339753	14.729723251321449	10.250251554771461	14	-0.4300225070054065	-1.8274881825705955	0.5008855120656038
Si	11.41794904214534	10.544537927548769	11.555649321725673	14	-0.518979665756146	0.6700876391897608	0.2009156828060554
Si	12.8075140640985	11.933542287528782	13.025168139000806	14	-0.61253524637197	-0.8175986362804885	-0.053893452836687915
Si	14.065126441183914	13.205793039040334	11.625638624706733	14	0.5452777023022165	1.2172260504121684	-0.2007272207860886
Si	15.437975241458942	14.458172571043049	13.273160822553017	14	-0.43332303490488056	-0.2290240346080423	-0.2069256414919016
Si	14.240450537113695	10.5173305310701	14.244460119709528	14	0.29794662648312376	-0.34395141397653334	0.7619686589105724
Si	15.659175078597476	11.772701959238605	15.77554981549015	14	0.03284947001233991	0.18692244210114953	0.3724577728820792
Si	11.442116971139285	13.13073569161717	14.53679946636191	14	-0.38849761342182293	0.22178225936331322	-0.6802761582419115
H	-0.822040886050989	0.5754906328478737	12.152395839258485	1	-0.6161569053259307	0.6243805856924243	0.6113738780988591
H	13.651169318702106	-1.1738817588352473	13.513200600964932	1	-0.34606074878118287	-0.36950357286922897	-0.3257757562473426
H	-0.5923104920422537	1.0952684553217968	14.878864433105312	1	-0.21422886615378217	4.284998984348149	-16.251542780699463
H	0.33030465711274687	15.206695381633512	11.119642892918144	1	10.936774977946888	-9.489668457744536	-13.424958551972741
H	13.552433347279743	3.443167891046387	0.8519054804872327	1	-1.271200750176973	1.4618767489350064	1.110869450628391
H	16.356412609426165	1.100059566728681	15.528726027203165	1	-1.5687365140299372	-5.105253829534881	16.42386134458217
H	4.425581887076599	3.5025233052701106	15.408443646255234	1	-0.08065557389304524	-0.21192695556065366	0.024969546427150085
