223
config_type=interstitial dft_energy=-23324.25270379984 dft_virial="-73.68384090968618 -1.3131070867454508 4.720087636139054 -1.313107086745451 -72.72168436564446 6.029251458359744 4.720087636139054 6.029251458359744 -75.89206904355241" pbc="T T T" Lattice="16.254729908999998 0.0 0.0 0.0 16.254729908999998 0.0 0.0 0.0 16.254729908999998" Properties=species:S:1:pos:R:3:Z:I:1:dft_force:R:3
Si	0.117505442512161	-2.754997917546501	-0.08897839152186598	14	-0.3671623243647022	0.22772536931083548	0.3390568007785674
Si	0.021472498209788995	0.221308147711035	-0.031014024666371997	14	1.5218385245483081	-1.4832074100025512	0.9909872941974425
Si	1.5186143964782337	1.4682897526799696	1.3648121420792758	14	-0.0024865159551152073	-0.39993106166998943	-0.3613395421461628
Si	2.7919449186296577	2.8541517699914007	-0.122820739192404	14	-0.5561182536635567	-0.0010243283595469945	-0.23495968835013614
Si	4.135268307769236	4.072573814510223	1.346314259442834	14	0.13861188735663116	0.546503091097799	-0.1777345972396004
Si	2.8355563589755044	0.08499598269416099	2.805485108643855	14	-0.9147352523862148	0.0752459682994537	-0.023990983742301724
Si	4.187933632674396	1.4757831831680188	4.124085053591844	14	-0.46747811219879165	-0.8178567752546312	-0.3315463450278829
Si	0.06358850340400798	2.668961632138164	2.6988865899006327	14	0.41063071645978566	0.9964344379287081	0.3159829303039626
Si	1.3170720003365428	4.119761295436049	4.22718880540463	14	-0.24493506277124666	0.06842302611137673	-1.0671706874966223
Si	0.073422614998953	0.19827519542998198	5.41900185706242	14	0.19222817503980708	-0.22892838949013278	0.6314565246440037
Si	1.4343011124402507	1.5224180032769397	6.789015512712575	14	0.1314343897449058	-0.8035907402752576	0.13587803106971771
Si	2.8149616161808018	2.807923318130205	5.396293999379546	14	-0.7381774500516463	-0.3343555347006767	0.4608138072089679
Si	4.009668009762392	3.9740051323420467	6.9416961907478125	14	0.31177223112115604	1.3840848721475423	-0.6099533424094774
Si	2.6611268523220257	-0.005266532490515999	8.210264077035898	14	1.1961239606075849	0.9056029433995809	-0.960786833996451
Si	4.108545531798839	1.3860083098806117	9.560154377058712	14	-0.3845175423862337	-0.6093483613276466	-0.7553555189166196
Si	-0.026543973941396997	2.8291519953913586	8.024927646613481	14	-0.1487651822658959	-0.7289957758428655	0.8710909966872331
Si	1.2934538777787659	4.0916081032336615	9.452531810331223	14	0.15806821264578771	-0.045004113302807944	0.1288080056603745
Si	0.07805521302301799	-0.014304162319919999	10.822854305849651	14	-1.196212406630598	0.09568137049452263	-0.6321455808698034
Si	1.3202254179388888	1.3300270200740159	12.163186824685972	14	0.661308085853051	0.7773888630681606	0.5081211166575644
Si	2.688272251270056	2.748382242473538	10.768774819442408	14	-0.5060130674055751	-0.30854806504969035	0.4775774138963334
Si	4.059878870451294	4.069420396907876	12.10632777946429	14	-1.1639020974038932	0.5948002760946526	0.8891357851556283
Si	2.91707382946914	0.06518146693508999	13.394092501774907	14	-0.0031766006230429513	0.14256753289167895	0.25128080781190415
Si	4.229822071649888	1.5000189854623378	14.780783510311696	14	-0.8618933816254676	-0.6156503975778614	0.5517329764295122
Si	-0.098731229467266	2.7378816869523237	13.50228398404921	14	0.6080417256039473	0.7619614598156761	-0.4080706668925142
Si	1.2377976825703498	4.28505564388067	14.839170500144824	14	0.44861828334390946	-1.5943645205295771	-0.18357923385336097
Si	-0.16210842138245696	5.42955117677336	-0.011622131884935	14	0.9992587971228909	-0.07402854993036356	1.0288812728479129
Si	1.4417945429283	6.563074766977476	1.4422009111760248	14	-1.2404086786418154	1.080170710216355	-1.2599501075170692
Si	2.7273161125114735	8.045246058999732	0.0018692939395349999	14	-1.7971617382089167	0.6355988324252944	0.4423501856839205
Si	4.046127368948279	9.376118325029015	1.275151051901232	14	0.2792613756794796	-0.052411467730154565	1.2329542729871101
Si	2.77890862524264	5.350536934685712	2.7944969112253704	14	-0.3270569380283723	-1.0601615972833667	-0.06704799898616152
Si	4.0666570928233465	6.674208355365308	4.078490536197099	14	0.6193705298655837	0.9912559747033979	1.344214227726942
Si	-0.051218653943258995	7.920084638700431	2.719936465132788	14	0.7244063528464011	0.6751820272711021	-0.8329021122565418
Si	1.2591238882109579	9.281060664521183	4.054449790661687	14	0.5683052928810588	1.0159272729134108	0.2320625668753933
Si	-0.11022332351292899	5.565229407323784	5.449121871583796	14	0.353373486532748	-0.6374374298397323	0.399940317649142
Si	1.2749885046021419	6.917639190482492	6.775784162566649	14	0.010026025195917434	-1.401005573369969	1.0531658768177756
Si	2.6907917344059507	8.135606102563862	5.5695044012898505	14	0.7829133970695628	-0.19717549589683606	-2.0875395448505887
Si	4.05878980354739	9.547556961379238	6.734513403327698	14	1.073264721326437	-0.2528201285670768	0.44460427371809436
Si	2.699016627739905	5.446407331688993	8.20649297969701	14	-1.0063015688158405	0.2727811618305784	-1.009333416209359
Si	3.98175863850864	6.849499362703964	9.438666525718846	14	1.2745043634028312	0.21462378793095696	0.34746431517545173
Si	-0.069033837923523	8.259190814061988	8.113678471916622	14	0.26572322061623993	0.2752031430421579	-0.6454644206492346
Si	1.335569882972985	9.528100049678164	9.44936213799897	14	-0.11577610123467197	0.6170951016572528	0.13672958115175077
Si	-0.030054995601740995	5.462727080517629	10.769652574857494	14	0.37710581707984286	-0.06890639391156457	-0.39781298510725144
Si	1.305774963049788	6.842639866682366	12.007921644595205	14	0.2789042491505111	0.17665833255258637	0.6966237600884769
Si	2.710004825158389	8.230810055640875	10.806144443503198	14	-0.29003199297611193	-0.08621404648467336	-0.2655740965076714
Si	3.9834653851490844	9.65791032273144	12.119087742442856	14	0.9224488254571911	-1.0631263388280292	-0.11568765521165886
Si	2.6118425112379375	5.593252561686899	13.483721082493132	14	0.549871496177725	-0.9815649645306956	-0.5129771632757282
Si	3.9721846025922387	6.870484219016483	14.872525205918091	14	1.2448600332825879	-0.8887655459895272	-0.8398926905114923
Si	0.013523935284287998	8.111354045539635	13.472732885074649	14	-0.27377772225266783	0.7537915155503735	0.10080506917651373
Si	1.4295709860367318	9.515957766436143	14.778377810285164	14	0.036396309801484186	-1.3240513626958088	0.3907416741452482
Si	-0.076413485302209	10.487746794045707	-0.04096191937068	14	-0.31661182266527077	0.698082605247129	-0.821377132658978
Si	1.436901869225691	12.187276334411111	1.3932579194200259	14	-0.17966524022449956	-0.06263598225678743	-0.1815778854721577
Si	2.864798618081796	13.610020333886062	-0.020659761714338996	14	-1.0729533604721673	-0.30617442061812966	0.14105469452130387
Si	3.9956726873107438	15.011584420289587	1.3323351917210937	14	1.9536623479410105	0.24627203753772367	0.31997559975562057
Si	2.74786209111645	10.709542583654013	2.6941564634971136	14	-0.7541231881366726	-0.36188153114765004	0.7546847175385929
Si	3.8402937241106123	12.322792017662444	4.07197238950359	14	0.6312284676021067	-1.5516062677239184	-0.3595040300581091
Si	0.039694050437777996	13.536613973617017	2.8126209350739058	14	1.711946309030589	0.3535262101887648	0.7738517934792328
Si	1.4795542805069068	15.059470854601502	4.304317498822836	14	-0.6950417589849899	-0.11291780345026335	-2.1204910877441385
Si	-0.09803227608117898	10.734607377173688	5.409509094795563	14	0.5262111565795944	-0.33543848426152306	-0.25399640925104455
Si	1.2923973203346808	12.106279015274565	6.698151572521265	14	-0.12686476425940657	0.24233336129778882	0.1396321019476659
Si	2.655779046181965	13.582826170748305	5.518269492616682	14	-0.5876124940616467	-0.5540716538287189	0.17786289539507577
Si	4.0317906971685415	14.764414997293333	6.847386247815794	14	-0.6390016903165104	1.97335135826164	0.09042783099386406
Si	2.6739030700304998	10.853136867670118	8.034566701449517	14	-0.30704936775857605	-0.5683741985036387	0.1736118298587429
Si	4.048451795325267	12.096493667869346	9.34612834834691	14	-0.44446440558867834	1.0664644048651775	0.895464046680109
Si	0.14512222862755197	13.552641137307292	8.126682255843821	14	-0.9941260995722794	-0.12809709503935357	-0.0452586527295026
Si	1.4451105078297357	14.901296077857022	9.503604171705303	14	-0.5968301637449096	-0.663564744992545	0.666290630852966
Si	-0.04031173017431999	10.932346166516675	10.819131972700491	14	0.10471160659994672	0.2463440284866878	-0.7032618398040353
Si	1.3029466400456218	12.262974611597324	12.208358719103083	14	-0.5400316190069864	0.16920366978734905	-0.32435702033168484
Si	2.7211880793357808	13.519302686263933	10.903185181059929	14	0.756128136065324	-0.16899386759322493	-1.1221159795197826
Si	4.221743470885116	14.760140003327265	12.17589802347481	14	-0.7637226669599775	0.455381318778027	0.13876332545998787
Si	2.6591600300030365	10.92756727592343	13.429414029867162	14	-0.5198312158381789	-0.4354544812152833	0.5962110415838179
Si	3.9078646363423255	12.146688273828337	14.836602252819203	14	1.501070935545876	0.5461138257523286	0.10481496503381667
Si	0.041059447750133996	13.77976847832575	13.515872938253136	14	0.23782287123465307	-1.1141982606863865	1.451343701769956
Si	1.5858277046519487	15.055504700503706	14.86655972004149	14	-0.8065305420983149	0.7172975037467236	-0.05702043112705201
Si	5.523552279837108	0.15120149761351798	-0.019538185350617996	14	-0.42904163032577003	-1.2620409303634132	-0.5073428430771556
Si	6.895061370638891	1.3457941080857458	1.3907384362841309	14	-0.15912982203247686	-0.3984408490264316	0.6183408021848643
Si	8.18830393692884	2.7121829589661948	0.056208856025321996	14	-0.49675246026346576	-0.018310640758498573	-0.5223226168934024
Si	9.513454538030157	3.9903086264407737	1.3883327362575988	14	-0.006570459645638416	0.1138115196595468	0.8010584586454438
Si	7.985201086715885	-0.14986860976098	2.9058418111020208	14	1.038851505058383	0.6519153238974862	-1.0749945609858327
Si	9.498467677054057	1.307384181310779	4.06742106512907	14	-0.7500289600248689	-2.195218464100518	0.9399601095716555
Si	5.469131444101775	2.6804699809137356	2.679836046447285	14	-0.17099418753230017	-0.28376209554239884	-1.1257479228950238
Si	6.743128410179469	3.8659274331771054	4.050012249396531	14	0.5251184368185313	2.1986220933233307	0.2513882800142863
Si	5.294799465827751	-0.04881295391672699	5.479762037462261	14	-0.2409979291945039	0.04757239040710386	0.4094734619551871
Si	6.72944192759609	1.282855793878098	6.676711583771294	14	0.43463764105507235	-0.21146647059781506	1.247257331883094
Si	8.084826326328146	2.5527403132888136	5.314402670098004	14	0.11509270144057661	0.12945026776934748	0.6019932003382988
Si	9.437431166245762	3.8394322234254354	6.692153577184844	14	0.33735755727248157	0.49495268653936203	-0.367576272321246
Si	8.168034288732317	-0.03402114969953699	8.138369406648392	14	-0.7547358825344639	0.6878323796672947	0.06283241470324674
Si	9.516039040085687	1.4368043408462368	9.489137462086292	14	0.4396834352458629	-0.851607674792215	-0.5784963830385297
Si	5.434622652504968	2.671058492296425	8.098203969043253	14	0.5385861435959991	-0.7989352398720655	0.6016584424256157
Si	6.708733401692024	3.9856435189568904	9.539575888993918	14	1.0085281460230886	0.6384982678948253	-0.8736425616069481
Si	5.420676094243046	-0.03511021660344	10.861280487354527	14	-0.2798941246987681	0.2736381112337838	-0.2156092926001697
Si	6.815331920435247	1.3312948890069178	12.05662081540257	14	0.5847991906203406	0.27074690330127726	0.8911692723533335
Si	8.225754834639176	2.7516331884553376	10.842587547959177	14	-0.7085495750054519	0.17177888887600934	0.2374377196576949
Si	9.436033259473588	4.0696317083966935	12.372856585782163	14	-0.1943915030561797	0.6362326098867108	-1.272331522296774
Si	8.228079261016163	0.08091604548700199	13.51367854971542	14	-1.1701051460992824	0.24281595776638065	0.3994826609021556
Si	9.528961550363343	1.4029945026355168	14.93060335588295	14	-0.5321925759963868	-0.1955981227829252	0.17096796225803465
Si	5.477535139464728	2.7639217642665415	13.368832651496321	14	0.769947570050588	0.32985250084296935	0.4265376308544778
Si	6.733814449941612	4.058025831241668	14.991607357231427	14	0.40225919753738354	-0.049358280162478715	-0.8555849176119522
Si	5.467310914351967	5.567651362080225	-0.041026938290316	14	-0.8465477395221637	-0.5368550183839433	0.3276917439319169
Si	6.798134416191524	6.820273358327582	1.4004100005799858	14	0.27087237324090047	-0.24964764171254608	-0.25421469609272507
Si	8.04995993067334	8.229184582649976	0.014109105561011998	14	0.9171387216394893	-0.8327357617423281	0.32730890634974685
Si	9.429970245217532	9.572134113001647	1.3301082937235609	14	0.6165343435869284	-0.6524922799313273	-0.31428960034011305
Si	8.111354045539635	5.3727571504713145	2.6919133107696718	14	0.08913199391250944	-0.09599478823304869	0.6199328305991001
Si	9.522313365830561	6.8147467501585215	4.021859057194143	14	-0.8105833754144645	0.008730445225094816	-0.7781326838372793
Si	5.451706373639328	8.103893124511403	2.7493737809979866	14	-0.46266731703426267	0.5309103657732289	0.3228220704555565
Si	6.752751210285596	9.6843892777532	4.003767542805425	14	-0.24746143085882416	-1.1455114952699381	0.4212216134945396
Si	5.429307355824725	5.25237462076526	5.499186439703516	14	0.16299959264983171	0.5840078044027991	-0.20613811193234022
Si	6.930626719679783	6.696070967092913	6.726824916080741	14	-0.35294076950736714	0.5385995133436638	-0.08714607216322705
Si	8.231639046866233	8.281411029847591	5.290995859029044	14	-0.8802793557698464	-0.40889496325815367	0.6601528882327085
Si	9.626636222386523	9.53369167676686	6.726597349862016	14	-0.5649862530232795	-0.1333238950446826	0.25082649350183395
Si	8.282695153510403	5.239484619947423	8.052479413809236	14	-1.1718933498494455	0.8355295247832012	1.1549119705414634
Si	9.63450351166248	6.682400739239444	9.456319162400021	14	-2.0167439027497793	-0.006513123996999114	0.16252779482358454
Si	5.501982253247864	8.149633934475329	8.136857716766855	14	-0.2896247298934005	-0.6238959323395764	-0.8837493195099183
Si	6.8833742198343195	9.396501756334901	9.503717954814665	14	-0.5591984378370941	0.7695529053839453	-0.09831623922661037
Si	5.340914134579583	5.3964402919487275	10.78091710268443	14	-0.30903528950785847	0.15396575699695944	-0.9056677352536486
Si	6.683701117632165	6.5961856518021085	12.133749508820774	14	0.38350709799541555	1.7824470453511774	0.579198809011994
Si	8.132192609282972	8.050171242162158	10.877941585511252	14	0.5935720590832179	-0.8729655895761531	0.018650283771290136
Si	9.513487047489974	9.307182015484946	12.346800253738037	14	-0.9960855389367642	1.1695443880289582	-0.9096388074206173
Si	8.077836792467275	5.486946628082039	13.616489716389845	14	0.01332578176379548	-0.44520591236300894	0.6466479004280987
Si	9.50394552103339	6.796590216850169	15.002010384373186	14	-0.9753760569145673	-0.05085054969029266	0.08110603154513518
Si	5.316824624854445	8.170472498218667	13.441149944861461	14	0.4329044589587605	-0.1311883349657676	0.10554901560271894
Si	6.6693319363926085	9.431920812806613	14.966477544792111	14	-0.8713889877938384	0.9883195153172567	-1.0192175163916044
Si	5.206877631749969	10.85195027238676	0.010175460923033999	14	1.2621478883447315	-0.14759558645576054	-0.4535766599538151
Si	6.646347748301282	12.206375642054185	1.3375204505620648	14	0.4516141352629461	-0.48901831834992826	-0.19367879266143467
Si	8.099406819056519	13.460606856562533	-0.034134932808899995	14	-0.6132780386989609	1.2191106706118366	0.8302407611396564
Si	9.424378618128836	14.854856314507009	1.4127310858510078	14	-0.32239680963560396	-0.0208686334415139	-0.23382865911980302
Si	8.160020706887181	10.873796629384456	2.649520975167	14	-1.1027936088178059	0.6126781998277703	-0.12134562957917672
Si	9.422785654597753	12.156327328664375	4.0625283914264605	14	0.5750595865570878	0.46200602874592056	0.09947349373120903
Si	5.266971368223542	13.442043955006456	2.7124430346447386	14	0.5568726159644882	1.8038702662102475	-0.06200657567441518
Si	6.626208137944031	14.838536565678373	4.263583145670881	14	-0.21481584949837199	-0.845582032363916	-1.41540016361535
Si	5.352097388756976	10.993902828682058	5.377503531604742	14	-0.1909120262264233	-0.17228899617152674	-0.1762299864062497
Si	6.760894829970006	12.305090616791542	6.719819127489963	14	0.16788006476853679	-1.7601861583788032	0.9564005283202784
Si	8.11759586182469	13.515889192983044	5.43198938625971	14	0.8509319883140801	1.0390487088364384	-0.08257978911464407
Si	9.539657162643463	14.941542789111708	6.775670379457287	14	-1.2189093530652693	-1.2667419393307722	0.5955420399795154
Si	8.165774881274967	10.787906636545301	8.09890292242934	14	-0.40255101799122034	0.5463580807577427	-0.18245411816526416
Si	9.351281097728064	12.192347810142719	9.598775615322497	14	0.10057855479780868	-0.4944454074596969	-0.4513508540781629
Si	5.377308474845835	13.505339873272103	8.0800474357349	14	0.5092392903612969	-0.18784958267959492	0.8286929557369274
Si	6.621445502080695	14.922329698359269	9.431855793886976	14	0.9164805186775313	0.07756381974556717	-0.6293965550615012
Si	5.386736218193055	10.852047800766215	10.719116619570412	14	0.7277768148105832	-0.5419308945069797	-0.07022948470931277
Si	6.733635647912612	12.171427972749836	12.096249846920712	14	0.40405485749297493	-1.1974532220581016	0.33599692833705924
Si	7.927366757699663	13.582728642368853	10.780722045925524	14	1.1971925119786386	0.7327166794621837	0.6238051723217751
Si	9.4472490231108	15.014217686534845	12.170598981524478	14	-0.2793313097441877	-1.4984684627408222	-0.5160326648381921
Si	8.037264986614412	10.756486243631205	13.554494176516918	14	0.7745616756581257	0.5814708947834089	0.26490920867188106
Si	9.542339193078448	12.297857261982038	14.964917090720848	14	-0.8791645245030302	-1.1135223170977198	-1.4460847629481253
Si	5.467050838673424	13.373091390732478	13.508834640202538	14	-0.1814200196055006	0.9420231644805425	1.2455578312664761
Si	6.850247080279778	14.8857240466042	14.81226892214543	14	-0.4836436797886908	0.18547028181632988	0.3379874780759179
Si	10.799837608298507	0.0053315514101519995	0.003446002740708	14	-0.19049910671200754	-0.35353572327844934	0.891245891291874
Si	12.123248953299559	1.1931621942402357	1.5204349262280417	14	0.1353710091005845	1.2872799286281151	-1.5039145780299596
Si	13.460086705205446	2.673074078805141	0.05664773373286499	14	-0.290396832821041	-0.37824327407347635	0.4388915348072573
Si	14.899800642705394	3.9814985628300956	1.3922013619759408	14	-0.45783621013770437	0.361481467159835	0.006193278495172693
Si	13.492888750161809	0.083598075921987	2.890546110257652	14	1.2252016191152677	-0.4270438814920149	-0.2442051259708566
Si	14.970199877941273	1.4365442651676927	4.085723891006604	14	-0.5591501010570754	0.0018077441505961142	-0.45210804459494647
Si	10.78010436618898	2.5507247267800977	2.8179362317541483	14	0.7171656060438001	1.5488065911408093	-1.2790896726307832
Si	12.092560023231368	4.016657543623262	4.093656199202195	14	-0.6679682770743626	0.8105630636824352	-0.5842371469973563
Si	10.918220806225754	-0.13281739808643897	5.51116617564645	14	1.2048142965896855	1.2765211384159554	-0.673738865854903
Si	12.423343776879518	1.3893080200521388	6.661822251174651	14	-1.6198611435473578	-1.2115331090122963	1.2482418081101787
Si	13.480974033138512	2.7417665674005747	5.286899667091976	14	1.6344053721223712	0.7182678388945476	0.45739526557529897
Si	14.813195441750242	4.095948116119365	6.757286279930208	14	-0.5331531409439941	0.5689642671746127	-0.38001682252331453
Si	13.741049711682512	-0.020025827247887998	8.009696964688748	14	-1.0981681903468594	-0.4629437108561786	0.10501499702772418
Si	14.893558826420337	1.357465004160408	9.456270398210295	14	1.239288705164359	0.15118973458279555	-0.10585651979900865
Si	10.91955369407829	2.6871181654465164	8.029674027746909	14	0.16114582571400496	-0.6942408596777637	-0.020765532118175962
Si	12.093226467157637	4.067713650267432	9.468428936182226	14	0.9735359168369373	-0.4767032380874831	-0.0014927837488779747
Si	10.839873008064373	-0.00035760405799799993	10.868123728646216	14	0.10548088131173501	0.9752549578539884	-0.4532822683946581
Si	12.134058348689045	1.368794550906981	12.283081712494756	14	0.40898572327595495	0.38570076505456585	-0.547561358047572
Si	13.569090923975201	2.6737242680015005	10.808095011092279	14	-1.109342728289287	0.3311331684029351	0.05386182824125009
Si	14.808140220748543	4.221889763454296	12.033392806362608	14	0.48542262755970117	-1.7270255846227254	0.8086298495922158
Si	13.521562093721284	-0.04128701396886	13.547065764948506	14	1.1327364442657184	1.4874811012657012	-0.49822621783297455
Si	14.89809389606495	1.3876175281416028	14.928799080863051	14	-1.2830028949280488	0.43341893713332214	-0.949915943592333
Si	10.792084102131914	2.7836712611059764	13.639864017998987	14	0.6774826523115706	-0.7104498789475734	-0.42113959523482686
Si	12.105937665946474	4.082212869346259	14.953652562893911	14	0.7787345795927261	0.15629235020116142	0.5178861746634869
Si	10.779665488481436	5.415377052292712	0.11638386614843999	14	0.25059637957568076	-0.21245917436192427	-0.5709000523701521
Si	12.207838567745995	6.6920723035353	1.356099606848052	14	0.3281224040730417	0.8032966058266326	0.13698180658365725
Si	13.577104505820337	8.08445246754024	-0.08039589412991399	14	-0.8671024410040875	0.054656299785175846	0.3527168262339822
Si	14.829498935848969	9.324200717699668	1.386122092989975	14	0.5557477573869235	-0.32171623805736077	0.42721923087484903
Si	13.509208498990445	5.350260604277259	2.786694640869051	14	0.018274902394548518	-0.0781286915844037	-0.4229571095856396
Si	14.80285743352812	6.833504708473509	4.08091249095354	14	-0.05725594437437757	-1.314454969198888	-0.24826027328179417
Si	10.857444371096003	8.200186144492319	2.6413936102125	14	-0.20392490447275674	-0.6312788612663816	-1.0186518732211716
Si	12.229847472042781	9.469648040925401	3.8817432853785623	14	-0.35252579310869525	1.5485404817401738	1.011758739857855
Si	10.66484207640426	5.412922588076454	5.39850464264717	14	0.33765914792653495	-1.136949200332781	-0.034261521054165245
Si	12.10161390779068	6.694396729912286	6.609303218838671	14	0.3299466032976868	0.9664460939166292	0.7824598540910886
Si	13.463679000515334	8.156704741985743	5.29447437122957	14	-0.5390299163742567	0.12079361326694094	1.171452919508104
Si	14.707068310174382	9.510317375157719	6.762243972552453	14	0.25648575342201196	-0.038642427409165556	0.3522756245610448
Si	13.402382414028496	5.476673638779552	8.109793591468371	14	0.8216404138437611	-0.24911619424287146	-0.01710376392122107
Si	15.015924433175291	6.785016849154961	9.338358587450408	14	-1.7235527926668013	-0.16160631067684347	0.4839866652383984
Si	10.805868113094746	8.045619917787638	8.104673351547035	14	1.3844916210091895	1.162822747390495	-0.2734313943660439
Si	12.17752349646571	9.57306063260646	9.568021666334669	14	-0.5921561513834124	-1.496676916553743	0.023510701268498066
Si	10.80564054687602	5.343108523117298	10.851267573730581	14	0.08707459543532693	-0.14412099472611245	1.0751984496377205
Si	12.184057897889128	6.710440148332469	12.168843470694306	14	0.8534048774109986	-0.041334888900424624	0.05996023295010931
Si	13.658540702664427	8.102917840716863	10.820708681501662	14	-0.8851071202294885	-0.0376674642717654	-0.26248619901817355
Si	14.90264522043947	9.578002070498794	12.114845257936606	14	0.26263840845312625	-0.8640582523050322	0.6767686563641655
Si	13.569952424660377	5.313752480901645	13.58308624642685	14	-0.9524831922545011	0.8943147626020027	-0.0641616761537633
Si	14.894209015616699	6.761821349574818	14.842779050184621	14	0.06832789521453125	0.2895131439225061	-0.509988510451588
Si	10.838540120211835	7.982730367769717	13.576080457836069	14	1.207268416617767	0.5598890367260859	0.6374813957407067
Si	12.226320195652528	9.522394639480106	14.908773253615163	14	-0.7141581841508229	-0.18057232618144778	-0.13571245188710018
Si	10.805039121869386	10.937320113868829	0.029469825325016994	14	0.7296573212417394	-1.2763725285284506	-0.41586985777065144
Si	12.190868629721	12.23213938895995	1.298882957568372	14	0.4607050494539256	0.5380415834891917	-0.24315662922130027
Si	13.574471239575079	13.67864780356186	-0.05863081078176299	14	-0.42627640655395077	-0.15197906391608101	1.0361274189716863
Si	14.944452385765416	14.900385812982119	1.5653629996965177	14	-0.888990260594508	0.7126769703758856	-0.5653156116147906
Si	13.54862621901977	10.86041898666935	2.535916667832999	14	0.03022668547525686	-0.4311447944776511	0.5317151217384354
Si	14.954692865608086	12.088512595484026	3.9980946420671843	14	-0.7591993213702409	0.4567589170085623	0.3105296159199285
Si	10.824837382898549	13.464182897142514	2.6907429702162236	14	0.09027510733784726	0.7664467530466744	0.35460864552854715
Si	12.241323311358537	14.846290071844967	4.048159210186904	14	-0.32726494044877236	-0.9954378775066188	0.6261464208263019
Si	10.917424324460212	10.969829573686829	5.421862689526404	14	0.09695689584384809	-1.2720574424696462	-1.0085042347436113
Si	12.265705406222034	12.223020485481003	6.74197432435593	14	-0.7142155197994622	0.49364759347885495	1.644961816345835
Si	13.644594144402506	13.526926154591255	5.498926364024973	14	0.1702051153095467	0.6477892140797125	-1.1476403704750207
Si	15.132162006754548	14.918623619940016	6.657628530858128	14	-0.30735507218114166	-0.2180366731329215	0.7643204489469119
Si	13.482176883151778	10.87959956796197	8.258475605945993	14	-0.08168710134748865	-0.07581495390680246	-1.3834351538331406
Si	14.789626083382192	12.299612772812209	9.442096273729646	14	1.2343575822708472	0.30903554661839044	0.4260648045861026
Si	10.68257598673498	13.521383291692285	8.226778882623444	14	1.5009287534216715	0.1389546156958069	-0.5015462861328818
Si	12.17232198289483	15.012462175704673	9.442778972385824	14	0.21409516867713446	-0.4569676907605583	-0.6338255410859883
Si	10.738329710322851	10.832200775547324	10.948373330206948	14	-0.33543437049301084	-0.46341293757710555	-0.129979915465298
Si	12.047209326785257	12.2864139321261	12.165348703763868	14	0.00088343178800288	-0.2579232584065067	1.1542380838370527
Si	13.387233005753309	13.553990279889739	10.848390486536688	14	0.3694436661152695	0.27029336032280316	-0.9228041522124356
Si	14.819664824254025	14.880571297223046	12.078450917670356	14	-0.1344574953803359	1.0672300800295176	-0.02294043010848922
Si	13.492612419753355	10.855607586616285	13.428373727152987	14	-0.35572039146897916	-0.1008845163309063	0.2752527653748368
Si	14.791983019218998	12.145306621786073	14.921224376725455	14	0.34198091885917187	-0.4723513852226004	-1.0417774229127115
Si	10.777747430352175	13.702509747068273	13.610410447403877	14	0.4257146200414984	-0.1603531539438033	-0.47669449632939453
Si	12.24254241610171	15.060202317447406	14.9003533035223	14	-1.1716966602924541	-1.187495074042636	0.5049949096987965
H	13.898315849025076	13.213812917827177	14.088016674428061	1	-0.0878865504954297	0.46131183030948053	0.09328252923082446
H	14.087989041387216	13.88706757592805	2.5920101152759667	1	-0.16610985875561485	-0.13966578342735986	-0.3182336759012202
H	-0.004504185657783899	13.946678546923325	11.936469102861222	1	0.12674623630414777	-0.11845005076762595	-0.9397371947403989
H	12.144971774349948	9.572134113001647	1.3301082937235609	1	-0.0023299356411181893	0.029410616646641862	0.0951357819455872
H	12.254658691775878	14.941542789111708	6.775670379457287	1	-0.018614545407340078	0.07517783400846975	-0.2170920490382991
H	14.941321724784943	9.522394639480106	14.908773253615163	1	0.3975576743489608	0.4255670385961219	0.47647646659824594
