68
config_type=vacancy dft_energy=-6813.386510786151 dft_virial="-15.158186316956971 4.145045913615161 -12.000671171996302 4.145045913615161 -8.555468704419283 1.484231737906392 -12.000671171996302 1.484231737906392 -20.742843077623746" pbc="T T T" Lattice="10.854351079854425 0.018778064924278002 -0.0086943526036686 0.018756356178700802 10.846373115854803 0.002876408788979 -0.0086943526036686 0.002876408788979 10.86305628683088" Properties=species:S:1:pos:R:3:Z:I:1:dft_force:R:3
Si	6.915010468555306	9.442661747212915	9.605210321471317	14	0.22502108073510377	0.5035710315724985	-0.1130597284639355
Si	1.2534651405020858	1.2308174916786718	1.2102821037999196	14	2.519658274023512	1.4760885335921252	2.9083556623287103
Si	2.886995058759722	2.6930860306404982	0.15321489909748331	14	-0.5696363541052993	-0.14427963192436555	-0.6677013963421313
Si	4.262005294873992	4.086961166661356	1.4464363508123743	14	-0.2741001388598144	-0.26185165022516094	0.9222228252995501
Si	2.77189311883485	0.08318357130271496	2.735070744586803	14	-0.5381467416967858	0.40981361918904263	0.3995379396665388
Si	4.188574377521835	1.3577061950146847	4.16299496260822	14	0.5235053253406705	-0.17312460540057487	0.019531915785568912
Si	0.10406304279886594	2.666193236619463	2.8671673759867864	14	0.3351371507180017	-0.40396306903304563	-0.30373521300090517
Si	1.5739491805837318	3.9586277463071804	4.214383905138568	14	-0.5882025627326206	0.43924994688888597	-0.14225308671102485
Si	0.15813518628255568	-0.01988629638599406	5.639406749313593	14	0.3662084442909273	-0.18456833807002193	-0.6368388765212019
Si	1.5013931256783348	1.3591975858358385	6.945913953321729	14	0.793353627332556	0.013589062948578643	-0.3022730254053369
Si	2.976455713846084	2.740258049342475	5.571316183373425	14	-0.6478146680223819	-0.6554714196657829	0.5178470938626206
Si	4.279752194383353	4.067901973481853	6.950525976319606	14	0.4260516919489698	-0.05893153371151807	0.22813031839875883
Si	2.799032307118186	-0.07208823143820806	8.322099718009005	14	0.08559878098156194	0.3461175702087581	0.13640356499715597
Si	4.228280758619813	1.341817564126732	9.618129195964308	14	0.06410022673661175	-0.15756016223452646	0.1138218040808274
Si	0.09319998651203504	2.5651292570220874	8.328154287150488	14	1.3192968747377911	0.548430648756314	0.5886923582961089
Si	1.5756348646778013	4.108117424663616	9.564287165183737	14	-0.6759592724093829	-0.46227188103602385	0.3094343250535454
Si	0.08313472662516627	5.370586267393846	0.14191224071271413	14	0.9349881061035532	0.13334523521883979	-0.015748791417503027
Si	1.535073159004082	6.76840588248608	1.4521500926482935	14	-0.33215646832035406	-0.3948546713258891	0.11664410639075395
Si	2.798351737944341	8.242799841290052	0.14981205322825722	14	0.6200580434281914	-0.31844604920066444	0.027881837423281812
Si	4.185659978428096	9.585818984484483	1.5367914062165173	14	0.642275992941719	-0.6424066050919824	-0.49944800708110887
Si	2.825601640830121	5.395494882069125	2.873167673264324	14	0.547128126801127	0.03758544601205268	-0.4011585073498281
Si	4.183473907748471	6.748053933507456	4.266027925429448	14	0.3966557306026528	0.039434070737239146	-0.5931959063748802
Si	0.18054512434189926	8.067957604411284	2.8712301677215595	14	0.23653474746925884	0.17398926811974066	-0.3856801962120047
Si	1.4988282373883888	9.514634922299564	4.132531079939735	14	0.07382440416794381	0.30850255648552377	0.33827672742443454
Si	0.16251926745187123	5.3744732182894435	5.550971832455752	14	0.9996750590742229	-0.3209881010306948	0.5416357316162267
Si	1.6061790697049219	6.840182593425256	6.881939365543	14	-1.1874174266619675	-0.2026709764081205	-0.6098006187534606
Si	2.8787685296232417	8.21674174853646	5.520712011995693	14	0.06426837702454945	-0.045599067073890207	-0.13550007858765592
Si	4.252720464390624	9.48143899400019	6.9073440250547185	14	0.029207756436882178	0.5618096524002365	-0.08098236137923606
Si	2.8796922367475517	5.502804467769062	8.171602753857789	14	0.6185395486261118	-0.4255873503281511	1.0781793891459002
Si	4.228999318098418	6.891932986569465	9.604465711498017	14	-0.5035003261761944	-0.4345149993313012	0.12823130673706531
Si	0.1809695303179335	8.092120523675986	8.27884938419555	14	0.26046016802589683	-0.3097258883968502	0.4707763261034777
Si	1.2375678261159022	9.59547503451722	9.835621519841323	14	0.5444382364151882	0.03844316674685407	-0.5800611577363718
Si	5.650561788228436	-0.01662130105118318	0.12447794713966481	14	-1.3350518368080624	-0.5038412547416459	-0.5826836851629227
Si	6.954485651512886	1.2686417245351063	1.402301385616648	14	0.9061269346638271	1.198208869911693	0.7951456877406992
Si	8.466561650889762	2.624660064581164	0.12131823922090335	14	-0.11300393547848829	0.14074744743554615	0.8881374249598151
Si	9.617432345231279	4.162062571985679	1.640980359739731	14	-0.0222125501923553	-0.8436346771944357	-0.8813857023891061
Si	8.419069428190522	-0.009936092850684442	2.7218631437776346	14	-0.46487898183065407	-0.13057409790478422	0.3808640017263033
Si	9.649793572263212	1.2858817248352397	4.235314392186825	14	0.4620219695989055	-0.14922823833405457	-0.6075848401885569
Si	5.626004855231508	2.676681817045087	2.8295699995216337	14	0.18884871420700444	0.19802524620514497	-0.09453388619014054
Si	7.018468922789848	4.003561593340148	4.303618789270927	14	-0.36167995649055046	-0.24652889095920646	-0.7406151150056786
Si	5.659339719502577	0.050192790649044125	5.5754006838537755	14	-0.4289436712130723	-0.4411510221626035	-0.304427868774153
Si	7.062366177221504	1.2801701538738786	7.014154309606379	14	0.1787941497420334	0.13753767955387328	-0.016895247279757056
Si	8.398214921751785	2.5960935262761264	5.588800407061302	14	-0.703601997037891	0.591317199717448	0.4567172651023759
Si	9.722263877623577	3.976358364257359	6.933614863514967	14	-0.5486707899932158	0.4415356595184976	0.15272159913253977
Si	8.448379491031579	-0.0061023283817509206	8.501436750659533	14	-0.26996143062597205	-0.11527704969203122	-0.5771054150603295
Si	10.005592314212567	1.1317745962945336	9.902966390370912	14	-4.049044792460179	2.2412533335261737	-3.284031173518955
Si	5.691749791212057	2.665582135431465	8.296364000127236	14	-0.5134517893178274	0.24508084444289907	0.08492078050863888
Si	7.015274480878163	4.036586022549463	9.69368865582031	14	-0.2776042983006442	-0.5566548433438717	0.05664504975031039
Si	5.5635303417721635	5.442155659812759	0.06792992122289539	14	0.21808629546560038	0.04997714521303836	-0.4206125186441965
Si	6.840763302369447	6.7824568680609225	1.4498250859969755	14	0.839956968144496	0.1707813000117919	0.2277299973004118
Si	8.26417644305992	8.20706724606998	0.1337671193721487	14	0.11842511104602052	-0.956446293994977	0.05410402636240804
Si	9.904585862790972	9.573507954867653	1.313651552177594	14	0.48764097722992494	0.493127201762057	-0.4275907555936104
Si	8.213131584146971	5.4766693089686695	2.896388432970976	14	0.0018612231412551943	0.37021936859035826	0.35653466052387006
Si	9.710606281248623	6.774659086649593	4.273370908620936	14	-0.7028556051634519	-0.05883254615669238	-0.7145456497225693
Si	5.564176176953085	8.118276305784676	2.845269764323065	14	-0.5668680450070959	0.25078252760085945	0.3043610200358292
Si	6.983673059941433	9.510631829615129	4.126983410007482	14	0.4296751506766545	-0.16820582381259955	0.4548187609339786
Si	5.610404950659732	5.376424834516834	5.545455640204587	14	-0.01891639317192546	0.21448777645952113	0.17914253451291345
Si	7.015832395639497	6.700873231307248	6.887789872476056	14	0.12322562178926899	0.10313371926497183	0.15746091756916875
Si	8.401375715107825	8.153248009472266	5.60329425104592	14	-0.6748405844845864	0.3267111243628124	-0.11057295539828828
Si	9.744246153395052	9.502206665456619	7.01621881131077	14	-0.7794606597351359	0.1917178106337577	-0.2414895245317162
Si	8.326566292411515	5.331902368212554	8.351712617850865	14	0.3218373371179397	0.8827615008459173	-0.6407819236401808
Si	9.652396450857918	6.828937463216266	9.676883915868999	14	-0.3394383528080775	-0.4120669358916204	-0.26402217733642996
Si	5.638259442109837	8.101630039676078	8.2023271414732	14	0.21822513515288836	-0.24498494221445752	0.1173136222161205
H	9.023254209847806	8.78419750355168	2.1737260014515654	1	-1.2208549084610252	-1.1585973929073639	1.1348774036658056
H	10.892484662335333	0.3351200763497942	10.744584064155148	1	-24.288022768606837	-0.46233950110594374	-31.899267390504384
H	0.3092399953099352	0.3055712173073884	0.23289033711492277	1	25.28550287506925	-0.7644299780335502	33.1175635349508
H	2.1671265427960966	8.69601983532893	8.99919006537548	1	0.5237038146713859	-0.5566365884960986	-0.5370673916833876
H	6.944002498273658	6.891932986569465	9.604465711498017	1	0.06637951160292303	0.08887179805411044	0.04798813813737181
