72
config_type=liquid dft_energy=-6952.448925663627 dft_virial="-7.87139792854092 3.750726607178177 -8.155876867171296 3.7507266071781764 -17.580310031496932 3.8508436585416566 -8.155876867171296 3.8508436585416566 -12.493875446371838" pbc="T T T" Lattice="10.996615566200001 0.0 0.0 0.0 10.996615566200001 0.0 0.0 0.0 10.996615566200001" Properties=species:S:1:pos:R:3:Z:I:1:dft_force:R:3
Si	-0.24037501966156583	-2.770696261444186	-4.6332920094315755	14	0.5424592566502702	-0.1433062114501575	0.2681986808184785
Si	0.0904141731852964	4.631070693087204	1.4232479662710014	14	-0.722458997676921	-0.6210512614133645	0.9372748471752929
Si	-0.7965728383843957	-4.922074130815554	-4.026608728644322	14	-0.6521179269967138	-0.42786560675233426	1.531961480414795
Si	4.796448794587286	4.059829504269812	0.48887653822655347	14	0.09157120152973391	0.07587743176608205	0.11567377124293006
Si	0.989255536335352	2.606780709814409	0.6313816793489393	14	1.4586266146998073	1.931276762360609	-1.1351157451289833
Si	3.7590170854564113	-3.4852453443202958	0.6130503212000838	14	-2.1211801439699385	-0.9718238178042508	-1.547833427777133
Si	1.6446318308497396	0.1701836225025112	3.3754221446606563	14	-0.4038082884927728	0.4745062285914165	0.05927297649803374
Si	4.6536577414601785	2.490667446050903	4.538413210326403	14	-0.662573069670564	-0.6936998991184047	-1.431045596598983
Si	-1.3672422031923448	3.1904040877593416	-2.898641883556923	14	-1.6153457683841137	-0.572512906737481	-0.0902792211063595
Si	1.9463899586018338	-0.3912265919986974	-4.087079117642856	14	-0.1269326414398585	-0.2681583144649522	-0.2402422813409124
Si	3.9642249285372695	-5.318040264123284	2.0132823710910284	14	-0.537681371633839	0.2492887154098534	-0.6117202059854832
Si	2.08449645349774	-2.8279666353129556	-4.312586713058919	14	-0.8329779598634862	1.4456404759488035	-0.6336391359502775
Si	-1.2920143561039705	-1.1381497111017	-0.9012606185746197	14	-0.07280213269265294	-0.7489506384535987	-0.2954626816333287
Si	4.230332028623743	-0.36717699375541807	-4.5163539995006055	14	0.6776258628779028	0.28770539977190995	1.4873844277056638
Si	-5.293187912943672	-1.5834796516861016	-2.8866225827430663	14	-2.1217434731455826	0.47882748530298935	1.0822201382670449
Si	-1.3002288279319218	-1.2135315108080011	-3.2500717238215424	14	-0.9146776596270434	0.45503164845448685	-0.26706456626176117
Si	1.0094453225148954	-5.407662680987814	-2.038387644428663	14	-1.5684202680755588	-2.2572800614287845	-1.4548396336737615
Si	0.7111511286661542	2.988209317343622	-2.085288209818506	14	1.8401292789876353	-0.29699094663562475	0.6712209824148819
Si	-3.694609908085178	-4.6054925652802225	-1.022179403340555	14	-1.0176092900138518	-0.7590363132929435	-1.45943471310193
Si	-1.378964595385914	1.1063255056531174	-4.11461464302062	14	-0.056712926930762304	-0.9822427078930868	0.24619284749386308
Si	-0.39598812653886206	-3.1452079977822596	4.085374642230095	14	0.515042017958339	0.6222118583548794	-0.5268888999419854
Si	-0.8853155260036296	4.33550365989888	-5.521928513336198	14	-0.28106629161422364	0.6861151384239678	-1.0539374655243519
Si	-2.63620765306956	-2.457116771958427	3.7851120541950034	14	1.1305654029333851	-0.5578249533750711	-0.7375902095965244
Si	-5.368272804029686	1.4980469453522935	-4.6869335001635	14	1.5261366413119997	-0.07007624683223194	1.33994413601124
Si	5.553994644327237	-0.7854112735847026	2.876879581351413	14	0.18135651330409294	0.8494425470021185	0.7846841173035487
Si	2.7479552604532844	-5.515022638760624	4.002680093172271	14	-1.09203533282671	1.7211932893145017	-0.9331703346422086
Si	-3.3371099360280154	-2.4447345828308853	-3.3995157293662004	14	1.2019382581785678	0.33560663454946077	-0.6762580348475841
Si	3.9252089365083918	0.9057582343411954	2.7746220532013193	14	-0.8822429089028434	0.9535663989258792	0.4536051992228687
Si	1.715614984329561	0.54763145519676	-1.9693288986729272	14	0.7443468172673416	0.4140651989464395	0.6009945830319534
Si	-3.1784287734077497	6.25652442638949	-3.4003404755336657	14	1.6475236656868306	0.07084783553880837	1.3247974974597156
Si	-4.106070272725683	-3.1038277334066486	5.420253805811113	14	-0.08975728672636944	-0.09374224286206695	0.8939771764734673
Si	4.306406615110715	-5.922337279332673	-3.732361289323942	14	-0.8083035763270889	0.8595220511886948	0.8630064131185595
Si	-5.2330584190276905	2.288054804243668	-2.3085964821213296	14	-0.7601758271708332	-0.36739732339096376	-0.1802702213063304
Si	-3.138247140128855	2.3162831164021034	-1.2412539786503913	14	0.12798730884218326	1.6786286407394502	-1.0611496730578993
Si	0.4786056992877226	0.9036798739991837	-5.545329311261071	14	1.6392835302462883	0.07564474673460865	0.1310284122148544
Si	-1.9938733446166856	3.3296102442118674	1.7113373008743091	14	-0.1702930471114958	0.6071726920057371	0.6405482101665794
Si	5.031325506465751	-3.6042507179777123	-1.7848826657810546	14	-0.801741344218475	-0.4311015999082727	1.007473221510232
Si	-3.4275790922911433	-3.5671481370573535	1.7520467717003814	14	-1.4258869308846378	0.9611917830843744	0.8086774150406385
Si	1.4012877249852997	-2.939362350998562	0.6158764514005972	14	1.0289668906550737	0.18445855187285162	1.2028913669207468
Si	3.4260725559585734	2.244332260752457	0.873846055968083	14	-0.19870324667806802	-0.8936028235388538	-0.5165080622118876
Si	5.132340417056865	-1.7246212124782785	4.974890875380013	14	-1.5606892114884057	-1.2729740415162791	-1.4392859891500576
Si	-2.082033211610911	0.9579481718183807	1.8049514891893697	14	0.3067457202202665	-0.2810683484984797	1.0232592939548772
Si	-3.0521766300922075	1.3393107996541966	5.342804642378366	14	-0.9388079972776971	0.6889351267391062	0.3629901917616979
Si	-4.806037843361012	-5.496647294149504	2.072532135761714	14	0.8909656408119778	0.3028890622400444	0.27645038623296175
Si	5.441664216318504	-2.2837991140195486	1.16321099797707	14	2.484167764626316	0.6862022988943208	0.813859220702865
Si	0.9277734587047278	3.2038089621345396	-4.816748546922491	14	1.9882537418077506	-1.3065812162664667	0.3401158390599365
Si	1.5677105049641706	-2.144724916953817	3.0808997899511215	14	-0.07107075037006522	-0.9108490266948109	-0.19334712007513552
Si	-0.045075127205853806	-4.686944496779066	-0.24309118370641722	14	-0.880999779480552	1.703700774268874	1.5566921711577033
Si	3.289670536475429	4.000348810672237	-5.4610292563305824	14	-2.0764418829572335	-1.2495731264449512	1.1101192020959718
Si	3.1161879293030577	-3.23726066668692	4.6538996670026345	14	0.32405208724071527	0.6479645634625466	-0.6781310850733119
Si	0.2395942599563656	0.7663761320396105	1.5646204559900685	14	-0.07439621799114474	-1.5327621226114891	0.5302606474588276
Si	-2.657046239567509	3.4150099606989768	4.096690159647714	14	0.9758311425562337	-0.7350340166872331	0.22815320123610813
Si	-3.0690674316018907	0.3155258904409766	-0.1871184104744592	14	0.43677782912356355	-0.7311624462961542	0.23077058645201892
Si	4.043554513231836	0.9602794543184151	-1.1178169689197963	14	-0.47345001852589963	0.44731576138872253	0.10832169557996664
Si	-2.1225227501256594	-3.2309486093519206	-0.04178713915156	14	1.7222955221652492	-0.4448647266870253	-0.9503707721234671
Si	-5.478656831083201	-0.7788023076294164	-0.5495008798430141	14	0.5135842012418151	0.13959456380999175	-1.4096534861142869
Si	-3.68560367993646	4.297807261737947	0.2006222543897528	14	-0.31101838304128865	-0.475730331834339	0.27690495765356393
Si	0.26441362128927903	-5.371032954536802	3.674684040679223	14	0.5654441668807979	-1.0141537244635725	-0.13173289507257496
Si	-4.820322446981506	4.049481689022018	3.8441198933232332	14	0.2956087204155131	0.9925996343437073	1.1021505753772367
Si	-5.024034750345361	-5.262892237058791	-5.301589327236249	14	-5.092506032247055	2.211510272961637	-6.5350917779649915
Si	0.8678529004845041	-0.8140464605190875	-0.13394977421188223	14	-0.23966995329664748	0.867458024869864	-0.3627271676874467
Si	-3.2069320009553404	-0.21693023527442742	3.692476564665335	14	0.18575258918048215	1.2599647628173938	-1.6217349651046815
Si	2.746613673354208	-4.33463492726915	-2.8119445664330023	14	2.6762704697264996	0.14891816303244473	-0.03184596760588612
Si	4.1403467234455285	3.8588883480286396	-1.6720024069940114	14	0.013492132278009059	0.051361171206874064	-1.2670754116907954
H	-3.847791663260787	-4.506777047004002	3.161047522843814	1	-0.1524943134222387	-0.2465114074430295	-0.0028449280367438493
H	-0.1399308334183384	-3.511761483435074	-1.4096891392778768	1	0.09340697072831963	-0.04774953956366207	-0.33951934262566213
H	-4.286223426900511	5.367238022504906	-4.375200342431305	1	5.457182354877707	-3.2311283675621203	6.194597729312461
H	-2.2310703423796197	-4.047345046617505	3.8508707156193234	1	0.3326863731268366	-0.4515028064025836	0.11705959701048989
H	-4.193431785429802	-1.9788101806141047	3.5763929917638575	1	-0.6397370264380727	-0.473162054730043	-0.24125452550545473
H	-4.232351007241697	1.2671213174467637	0.2803686108142786	1	-0.6045344808367332	0.06822196567534115	-0.19240223886998112
H	-3.7403888186872685	-0.12141143314330097	-1.5420059160781783	1	-0.7097214848103753	0.0010248425806110245	-0.029682639589513532
H	-5.458387869271582	0.9715377893350907	-6.271999963475803	1	0.14670881223084148	-0.07401080930365454	-0.4435827735743995
