72
config_type=liquid dft_energy=-6927.6556579879825 dft_virial="-34.2017392864228 0.6561113918142082 1.8026494805400468 0.6561113918142082 -9.731214413944736 -3.881440119251056 1.8026494805400464 -3.881440119251056 -8.216856302535174" pbc="T T T" Lattice="10.6355051814 0.0 0.0 0.0 10.6355051814 0.0 0.0 0.0 10.6355051814" Properties=species:S:1:pos:R:3:Z:I:1:dft_force:R:3
Si	33.77726899909271	27.873404353350942	-8.81052694080803	14	0.3439930658827198	0.08457496684307897	0.12118930637571171
Si	26.940394025807446	2.6382965928239908	11.126365652037155	14	0.8591875503865435	-0.9199810785709129	-0.7778627177786639
Si	5.5087343572424	-7.678802834455255	8.571430148824977	14	-1.4096863962623847	-0.06953374360968069	0.09325913217241112
Si	31.318903882927646	6.5622024164704325	43.05542846722172	14	-0.07089642942935917	-1.338746258042583	-0.7920094534711826
Si	21.173184986141482	9.083827517454464	-7.273792161642362	14	-0.9928935116818003	-4.485904896953987	-2.297043233647003
Si	23.682930227837893	14.624596016303242	2.798680010959503	14	1.1956979284560365	-0.17911348102279578	0.20259949968022042
Si	1.0216040857045583	-6.65471004053825	-0.250944744755133	14	0.4834061096571091	0.6718601591974708	0.11352098475837007
Si	16.39366340615659	5.532206917177748	6.586057854592313	14	-0.22023728217643623	1.0028819987400435	-0.1956536586578404
Si	24.92229628213161	11.474689082233185	0.5313498388627439	14	2.734509604775302	-2.0700190047569715	-0.16018063277682137
Si	27.953255726252895	3.449796273669992	6.2213770174272875	14	1.3829841819599868	-0.4718572187800679	2.6272631454402213
Si	20.62391432104808	-10.436280898342014	4.683791397847108	14	-1.2764488903564593	1.5726661914012514	2.1406454681277154
Si	10.705454898978068	13.305453037643836	18.313882595648	14	-0.9967897646839525	0.6417484021300245	0.24037906414394428
Si	9.094601284203224	20.878826109235874	-0.947123642919214	14	0.31201931434242225	-1.525867703695512	0.49970280361833563
Si	28.003561665760916	25.073852230966565	13.912506402387786	14	1.8587291690946508	1.5318833188130625	-1.733011374918562
Si	7.810385304559537	-3.9228635441386643	-11.137160689796275	14	-0.2585328674779138	0.5012583223370252	-0.2836656790928933
Si	23.117195800723678	-11.432232145549037	23.297371894001778	14	0.6272028880023508	-1.0079833288057494	-1.6039362314154242
Si	13.959281354175582	30.336480998311366	-2.797659002462088	14	-0.5408854830838075	-1.0321190657775754	-0.03889105329362387
Si	0.23652299972915455	25.910377255504397	34.27114995320139	14	-0.36174217723929797	-1.0790558789495386	-1.147716732303029
Si	39.1956653753243	1.2964361750971158	2.5234437723700522	14	0.9881999589198701	0.6922066011484627	2.9272460873369024
Si	18.014992993535113	-2.6097296259067506	16.085722989134336	14	1.793984880475342	-0.9065352261886664	-1.2417489958452088
Si	12.548502862873237	12.48404106596877	-10.797824261478528	14	-1.930665353515478	0.42175383229581026	-1.810412957918428
Si	12.154117059736562	2.1811825801274187	-16.825592542583607	14	1.2783126846030344	0.577097444633837	0.694070395395038
Si	34.25137854906916	21.283209287243064	5.437657276115103	14	0.15090382767119506	0.4536707624085325	0.851693035488844
Si	20.444365722575682	-22.67778990415414	-4.034110928336108	14	-0.5741892674062176	0.06865673958497819	0.655924448423193
Si	19.899774679762096	13.425166283965675	-7.259125799997211	14	-1.372345462366278	0.7451040077841252	0.672071504054787
Si	53.39728735056326	-9.362658556795228	-7.8724860193137305	14	0.34585814568195516	0.1013881958631233	-1.6930952219337954
Si	11.909160104398557	31.401967178394383	8.002568883187434	14	0.2402741630468822	0.45039363156747175	-0.8223981185816088
Si	7.006287935319789	-6.073703027983549	32.52606562753209	14	-0.04610840303781155	1.3094649679935448	1.1379187641490087
Si	6.61749640790853	0.43808709392704737	11.327025728294627	14	-0.42527136148430483	0.24254136371818882	-2.449960751004938
Si	21.189691290183013	28.406583499104887	18.108032392862	14	0.6296600933568163	-0.9607559807326093	-0.2171113323282002
Si	31.05060199371647	25.946144459429448	-1.6513748895159779	14	19.13099973345077	3.424714857542561	-7.965823442604383
Si	30.00186673429416	17.181052396756357	-8.221968719574534	14	-1.3239104661242647	0.25448106260389247	0.6273355570368705
Si	24.85042153811571	24.972261885473827	5.297598308381247	14	-0.8149719950854251	0.38107946035213175	-0.0866051116038679
Si	25.60810556274383	15.807944864806531	8.600837320651546	14	2.113924741867012	-0.21813720335093928	-0.3361933607835186
Si	2.425565218185628	2.03677369077437	-13.442395802359542	14	-0.33123035618403673	-0.4664697246922296	0.430464222899408
Si	7.529831313379385	3.929106585680146	19.69763626828441	14	-2.71621130532234	-1.8222562403546263	-1.2416016715103642
Si	5.183298534196741	7.602216561643994	29.987870409475438	14	-0.566416044691814	-1.2943041883627595	0.2612037316844837
Si	0.6094569889149456	26.299732464690273	-15.452336113561241	14	0.16291217506894667	0.5372144589077001	0.2891740151307785
Si	10.758494163317708	19.307568480251383	11.313539907724612	14	1.0750922629879984	1.362370087945168	-0.28439304478796323
Si	26.119598913432903	-10.985030423681529	25.828834837278606	14	-1.836089301198087	-0.9590685643109961	-1.7078942470460359
Si	18.44022176169785	9.695188261796881	3.874078481871582	14	-0.18760378501098876	1.0744260895995479	-0.15950494629868645
Si	5.333110260181941	-1.2000997691639945	-0.44886086067580555	14	-0.8638019131046134	0.5794170958536746	-0.23273028292703576
Si	19.882832320008127	-0.3306259495741818	23.08999017846966	14	-1.0675715228160332	0.04566000226997772	-0.8286896133000112
Si	26.432612466426683	-0.17740022642575198	-2.9116078049756076	14	1.1783658503823862	-0.1173778998491242	1.2774058557566184
Si	30.00906697130197	-8.508116986480102	16.784007717324336	14	1.0198127272732187	3.084494374496095	-0.2261554524023531
Si	5.466511401672241	-3.805575192998185	-6.306365339331855	14	-0.992507074552182	-1.368901723900472	1.9247479546211572
Si	44.95917325918714	17.620830536007247	28.179196398326553	14	-0.8392987651825382	-0.18790871810195833	-0.2115286913465627
Si	34.791353782634026	27.40142190441077	-16.664921965808198	14	-0.03952945874461664	0.14233921873924985	-0.08100781532190554
Si	6.273958955044129	-24.14861645771067	-8.143723307954975	14	0.7641813521490919	0.026683188123028775	-1.1773497495598637
Si	13.401831985597683	-23.12676775538694	-6.647754420149614	14	0.5894714032081136	-0.7492776830503216	-0.02346879225177965
Si	5.140692700440052	13.080788626191943	-17.297277197378698	14	-2.5862501589258797	-2.340942028772679	-1.1601801653424468
Si	14.233103070575908	14.018989080263962	0.7265007234362525	14	-1.4292087989582691	1.38504929375313	0.7088748198284506
Si	9.35437349825892	14.51823032898406	21.95535194369718	14	-0.2905289876344966	-1.0048010717510019	0.5683158344128714
Si	-3.145089050222882	11.02105287973093	-4.379222435967357	14	-1.1840011990230868	-2.7474319801143667	0.27572533453268
Si	34.10130093545443	16.170126358253928	-1.7880198600866049	14	-1.426587042863314	0.8305325815934933	0.5924523427162934
Si	17.85634316274417	7.850566243134865	-2.951618575468035	14	1.2537218619895423	-0.8385120069545728	1.3750368954154093
Si	2.919956676543007	7.889534734119515	-11.177330992866422	14	-0.18311489223254224	-0.43796799377626017	0.24291623087386643
Si	-7.502636326630546	-20.251288761512548	34.63144896223167	14	0.6870247954862362	1.0002103632018775	2.013029426893761
Si	15.387746690594598	-8.926868731987364	-14.772599706407604	14	-0.8049930211168664	1.0973076413962057	0.2636041156113739
Si	30.015203657791634	-8.874712214577778	-1.338191168439292	14	0.12175417821454824	2.1566948217571436	-0.6444915143960905
Si	5.349233686036944	19.219612852401205	-4.433846390579027	14	-1.7951711884700583	-0.010971934843199912	0.24575550247890593
Si	7.480525111358415	8.841912316598341	0.7315100463766919	14	0.4627745321261128	-0.6957511269428187	-0.37598867181823853
Si	15.182843047769746	16.46294308690823	12.22346055351929	14	0.09278142080392761	0.18460587620769608	-0.049382191441956096
Si	31.968509903902376	-4.341519570099294	-17.448365183985665	14	0.015659316952361876	1.658709002271603	1.164647203725672
H	6.057864633667408	13.997960559419298	-16.380105264151343	1	0.08361311634281157	0.5711435360439702	-0.9797595343748879
H	31.34730280886302	-9.368942013256401	16.736570173563734	1	1.1463797575365522	-0.5087500090188727	-0.4087944330401359
H	26.981688501775263	-10.122940835339161	26.69092442562097	1	1.50207958016297	1.0050946919785628	0.5987183834920262
H	22.231457103059952	10.142099634372935	-7.273792161642362	1	1.0211592151293802	1.1282290395289667	0.47374081053760836
H	21.173184986141482	9.083827517454464	-5.777170253818863	1	0.2834047119028983	-0.5360780303561946	1.6458197941911688
H	8.786072723744436	4.533518090937036	20.00263809522504	1	-14.946221148929336	-1.1683493382761532	7.29041412962298
H	10.56246797666777	32.10186850337195	8.110772385801962	1	-0.897567982163586	0.49811411764101615	0.3183563176249913
H	10.05994035684662	21.844165181879273	0.018215429724183777	1	-0.3305569837006899	0.023008564399473144	-0.1189807269057045
