72
config_type=liquid dft_energy=-6880.746708900768 dft_virial="-197.05508506934137 5.487434943605306 -23.508689796195075 5.487434943605305 -155.09910806981682 3.136911629179096 -23.508689796195075 3.136911629179096 -147.66730641391038" pbc="T T T" Lattice="9.799987616100001 0.0 0.0 0.0 9.799987616100001 0.0 0.0 0.0 9.799987616100001" Properties=species:S:1:pos:R:3:Z:I:1:dft_force:R:3
Si	34.438753880956824	24.586052131469824	-11.641797288669835	14	2.0797542379411804	-1.7065611289375389	1.631837866349671
Si	25.10653927374851	6.223158736012975	10.755104209152723	14	0.21508195889900733	0.46618793154914145	0.001320776802960068
Si	2.7002591877773456	-5.357290630180075	8.652115066626209	14	-1.0882630071009889	-1.517026700941651	1.2432065554512006
Si	29.09469323405849	7.005354547579612	40.131468687273156	14	-3.813504805639285	-0.6946995448668781	-0.4644861169377354
Si	16.50677574096751	6.402361309560979	-6.717136911790111	14	0.250704880220191	-1.4986363559182276	-0.17593482351549672
Si	22.1424938193086	15.815945213945774	3.7668310399879736	14	1.4277890346004833	0.6274985651141678	-0.5356954498845566
Si	3.7266608907495797	-12.897224702230325	-0.5836480624644517	14	0.19493991982096726	0.9949126006897125	0.17696892207526027
Si	18.02459782294908	7.375098280347449	5.76782191140612	14	-0.8193243621713717	1.038365051931811	-2.474652875168044
Si	23.23242884199601	9.449314659233094	-0.3869231110588603	14	-0.3802669910709649	0.3060672055262795	-1.32636381482075
Si	26.46738515409539	4.305869558823938	11.030052661710025	14	0.30261241130759653	0.5033753704576351	-0.5848035614993848
Si	17.815848286738532	-9.610005056174286	3.0486095475792365	14	-0.34688915891533456	1.951039820514459	1.74818012497584
Si	11.938050914304538	9.682965963976152	17.233444822701326	14	0.48103220811501635	0.20941704254712507	3.438956981242457
Si	7.444266592941882	19.077469292472397	-3.0672099240745947	14	1.4653863076970088	2.5262847837651297	1.618232862548108
Si	26.04305549030588	22.35698614826218	12.89188370897955	14	30.530710194716814	15.796439912627608	-42.26798287323882
Si	7.979414516694256	-5.237838581127432	-5.8618723925578315	14	1.3473260364959172	5.424378907650596	-1.8404239276573244
Si	21.73856772973581	-10.037676515740891	21.248401749141337	14	-1.7272518418908984	1.87114940756469	0.2332499033122377
Si	14.702362821140714	29.5080665116932	-2.534541397189095	14	3.26054258375621	-1.506695485544232	3.7962462611777914
Si	1.6163511574738376	22.79152739914767	32.070175274046385	14	-0.011762549729145446	0.5921409818620235	0.6706620241182817
Si	33.316106499606875	2.862086383282005	6.509710373907739	14	0.5310659176450979	0.3259544480670929	-0.4338871354121211
Si	15.874343340150114	-3.5996922511953877	15.99320738994579	14	0.42443189559727657	-1.2831594752420457	-1.7773590850331362
Si	11.327835085412838	4.603338382923037	-14.05155544354313	14	6.846960168425121	3.988372877557453	0.8149835650593659
Si	9.41658270059532	1.9158975789475503	-17.53728363875089	14	2.718652055602757	-0.029177674504636448	0.5096696933918897
Si	29.34191752164984	14.507813466985898	2.062583793585335	14	-1.035792661059003	1.260559973699008	0.34067119780908844
Si	15.95541863769811	-20.574721200447776	-4.695272066749672	14	-0.14240529614597763	2.4978049072443818	-1.4737897083253806
Si	19.618105209289787	10.61462138667593	-3.412051888309921	14	0.7256386836263481	-1.1388024530475436	-0.6527720161901595
Si	52.343635055187626	-7.893155025697343	-7.859325468446567	14	0.7455045859930042	-0.46842607873033026	0.011339860014513103
Si	9.335801402675807	32.49095734231887	4.614510368805391	14	92.42175145179742	-57.45994744045206	24.568410802637604
Si	4.321324139294528	-5.586188940929322	31.936268243259995	14	0.4494821747314793	-0.3330944075411441	-0.7940951341068867
Si	8.785512498056562	1.6210747515047979	8.42178595768501	14	1.791083902342619	-0.903296404816876	5.7522084628276735
Si	22.00145239753769	27.273786935073797	15.864984351976737	14	1.255195105337987	-0.10915884747220686	-1.6566510895733566
Si	26.172327126949853	23.35473268744494	5.553790181870497	14	-1.2699946446712915	0.2258443486586152	3.491252749233205
Si	27.06126440363105	18.00019585378499	-7.713766252384633	14	0.30965364033735404	-1.3415677890209134	-2.769133651679608
Si	26.782964355309044	23.646723318466638	8.036362244731412	14	1.3805146352999846	0.11156874448878164	0.6057711824957245
Si	24.350793628757728	13.150270182465643	9.95530761982757	14	-0.15357777720414909	1.1328300324993716	-0.015863976935845663
Si	1.3865708478391408	2.6887932022665093	-12.447454270589414	14	0.2019081294596326	0.06019368931317877	1.164261795038182
Si	9.694686749165006	4.132537177857977	19.03939634058385	14	-0.045175606027661824	1.303378133258626	-4.568715828436912
Si	5.821329843790027	7.682278892174104	27.38428179544532	14	-2.8507459338622803	1.1845835543781003	-0.07284044216192313
Si	-0.8716696985016307	25.44407044722223	-12.564054523245774	14	0.3546729231615509	-3.3469404642712743	1.7682879683531219
Si	11.659319666527422	16.914190626131635	10.895665431530446	14	1.6404628962566399	0.332311505971159	-0.22717669543551589
Si	25.022808179556556	-8.57860535951784	20.34753788753134	14	-0.07482250725322528	-0.405878285386024	-0.012896664285862764
Si	15.454600070564934	11.822538460273567	-1.744093996049701	14	0.8980950587542164	1.2453274602297908	0.20286895151777193
Si	3.627602615926041	0.05471333086068631	5.733953154204879	14	-3.304111763179843	-0.31974317183467915	-5.157579679457875
Si	20.065337444138127	0.9835757570898765	23.483377124881482	14	0.2425323648495683	-1.6748827973985263	0.7865008603227654
Si	19.784058199580826	-0.19835174934986402	0.17995717259444433	14	2.666096863085206	1.357963213426434	1.5187264586688007
Si	27.04076282953817	-3.0707575195916226	18.669946607444498	14	1.8376551043380571	-1.9707655976411675	1.6803916476574758
Si	3.3251455981303466	-3.9572251993935645	-2.754453119294379	14	-2.0204786903378262	1.2088496463896579	-3.006265409804205
Si	41.285662228759335	12.030004198106404	24.527379605612236	14	1.5922014496237367	-0.1096859240628372	-0.3208412909169144
Si	30.368642624213408	25.86330411745137	-10.915196806849332	14	0.020023768233313238	-0.09481002290152445	0.5185574902625776
Si	6.120435265821014	-20.34038389657159	-10.022388535059774	14	-0.005983476301048609	-0.12688867553888397	1.7807681135771207
Si	15.012375629388421	-19.523349129029715	-6.996436558848961	14	20.4077864670463	35.676007961170875	17.564497509944047
Si	8.057010818638535	11.925301130415992	-12.979877797784512	14	-3.746048258017752	2.2077099221879255	-4.987777456351996
Si	8.305832504211315	8.938382504880105	-0.9105168494118512	14	-1.0110205755204402	-0.42821142041789423	-1.288915151611729
Si	7.509740310205047	11.784357708521243	20.877962217252755	14	-1.7618452926418948	-0.1239460454999745	-2.5649143556476948
Si	-4.755404790762062	11.324846089189927	-5.317571280372022	14	-1.5761407831308993	-0.10007384682346361	2.403116754735032
Si	31.887523104857518	14.776205727828028	1.2228718546998065	14	0.28258658619002713	-1.090849024831994	-0.03210642057481712
Si	19.93431160971087	6.08765430724516	-5.853297403393745	14	-1.862988205057476	0.4832870674807862	0.45027176117529677
Si	2.941280083207709	8.531918218514742	-15.904860501586647	14	-0.5660249795726193	-0.5154207417719969	1.2280280351937063
Si	-8.840245428892478	-17.39121482333292	29.60325379140838	14	1.087363377349469	-1.0834812654265775	-0.93663258506632
Si	9.543894339716076	-11.153777505363287	-15.43186409929558	14	0.4848035053986095	-0.27076515814905033	-0.3502192545259904
Si	29.838169294553914	-11.766992130465512	-2.747779327727815	14	-1.034855493169809	1.1460257163339675	0.8952976961658954
Si	4.384592859344069	14.544916220100452	-5.034880837598001	14	-0.21935565016215747	-0.15230122341269556	1.064284364664224
Si	5.0547650124710675	7.210723088062604	-5.502761646353463	14	-3.176273064225165	-1.5538919803535303	-0.6295004277164352
Si	12.910660485251999	21.538618582404517	8.869184792322823	14	-0.7137694330264165	-0.13312000639279484	-0.02092751175334529
Si	33.26848835978024	-1.5976429811147026	-18.113611110466117	14	1.8402287807635251	-2.680006285756675	-0.0656205213124153
H	30.023509600345882	7.934170913867007	41.06028505356055	1	-0.026801458967755588	0.29427328831222826	0.9211704718920134
H	6.77644741684151	-6.08944378498386	-5.866659686508297	1	-0.1973716712327633	2.582052315269673	2.1759657703527178
H	8.762502127133958	-6.37018011022723	-5.335601297588122	1	-91.06720703711518	53.65940923316334	-24.208282765318295
H	20.900448288837897	9.66025449267584	-3.581099714690123	1	-0.736298486283682	-0.04271582956787616	-2.2054200957898016
H	-3.8656139351595	12.248021582605498	-6.103471487257545	1	-31.517131720086734	-19.261223389700422	37.16646357418145
H	29.069399466021334	13.549489337986426	0.7540267271629199	1	-1.1077717829386764	-0.7907714662595313	2.9631842261703363
H	10.227799215489515	33.38295515513258	5.506508181619099	1	-6.739458398331749	-2.762537223870236	0.5810808581063426
H	34.22480447131718	-0.6413268695777699	-17.15729499892918	1	-18.56151918832788	-35.562405986594925	-17.586366046244567
