72
config_type=liquid dft_energy=-6917.190572917368 dft_virial="-142.26628776862958 -25.018382527923965 -14.552504637844622 -25.018382527923965 -127.48218745127532 -9.688995368142157 -14.55250463784462 -9.688995368142157 -122.72151357657899" pbc="T T T" Lattice="9.799987616100001 0.0 0.0 0.0 9.799987616100001 0.0 0.0 0.0 9.799987616100001" Properties=species:S:1:pos:R:3:Z:I:1:dft_force:R:3
Si	34.717994728089984	23.33898410734587	-10.956836954230143	14	0.7054184829465755	2.8966375927216035	-0.8266473843442176
Si	25.64845898894361	5.7594331220067385	10.234754266700662	14	1.0337198359498996	-1.1866664067979522	1.5605272318532364
Si	3.132213241932186	-5.380124601325587	8.374765617102963	14	-0.7316247310327169	-2.5251552971979887	0.16450163237786222
Si	27.85263300360636	7.661679318205061	37.769946071446306	14	-1.435247039802637	-2.8544776361239435	0.9922638479888959
Si	16.213236711902468	6.8022008042978594	-6.759561058180208	14	-0.13998897136610247	-0.027228519561432185	0.2083616038132043
Si	22.79776999125913	16.223203299308043	3.88961508483009	14	1.1942730218876103	-1.4031241641537708	-1.281950541520512
Si	1.3636486768050828	-11.799204689759634	-0.6216720144149197	14	0.6797261988139319	-2.594167620648743	3.393881134101217
Si	18.089434541017198	7.6255565638521166	5.395108782390604	14	-1.7963065885794356	-1.8669813887301983	-1.1052302453297103
Si	23.190886694491365	9.525029363555083	-0.0034397956532511006	14	-0.8253129806830607	-0.07894424619195467	-0.7994265780987458
Si	27.774987701723997	5.188299643728046	11.036961652979375	14	0.7177099090400755	0.03273711270984944	-0.5711288807436454
Si	18.123391498106983	-9.526812961301214	2.620585288458453	14	0.21803924423824164	-0.02306821404290058	0.5895647343312351
Si	11.142076320149664	10.941744973301347	18.30414246969833	14	1.0822959858739891	-1.1730274644061627	-1.5016604899957857
Si	6.287525054675519	18.668849008831494	-2.130830907343855	14	-0.2145764795930662	-0.032550707574138714	-0.09877980951583308
Si	25.905179464534964	21.36531560140141	13.316291772669995	14	-1.0977748112328767	-0.21791454563021448	0.605536697690527
Si	9.377000550613893	-6.023885787827196	-7.026179521263824	14	-0.19597813214924306	-0.6928825447371295	0.4624775694616357
Si	21.675847808992767	-11.091694583815293	21.690302790726516	14	12.090130144217001	0.5758324608163242	-0.14470514985485008
Si	13.713710670465696	28.917176258380454	-2.3851209860064184	14	2.7920391147557435	0.5587703488012895	0.6605061581036968
Si	1.9945228795915206	23.435357185562594	31.476776223903915	14	1.245345972188096	-2.118638863471504	-0.2740016655260527
Si	32.94827376442418	1.7043452462787996	6.535876340842726	14	0.10223666061877217	1.0802678979974565	-0.18916778837723486
Si	15.586762703555657	-3.462090625077728	15.787446849958153	14	0.24978031074706575	-0.0233307238960877	-1.2004233629239367
Si	11.171750682651215	5.456299905065533	-14.519828251803235	14	1.544968445118892	0.3853279547831444	-0.44478399397997276
Si	9.939568839716113	1.8886928133252567	-18.274575907060555	14	-0.4249630859564191	0.7496093556366207	0.646497747877402
Si	30.52779442309887	15.556500341797141	2.506699632371755	14	-0.5109449616306831	1.4845518409744567	1.2459506961593947
Si	16.509000338156365	-20.16443491891213	-5.39992057631011	14	0.3875673875169934	-0.14729836668075144	-1.4117047139387011
Si	18.677845397463074	10.048417302168136	-4.760187184718718	14	-0.02003405265459383	1.0520834414779932	0.38173303532451336
Si	52.37785661194305	-8.049415828236059	-6.9043754751833175	14	0.5452404212750743	4.120256439401788	-3.3334197927242117
Si	9.841755163319819	31.855163545749154	4.794340141560826	14	-0.6696564648275719	0.08579907008600147	-1.5217932730946733
Si	5.905688137189415	-5.589716936471119	32.95131176058517	14	-1.7359151812671374	1.2139424918078072	-1.805727632693522
Si	9.317632225635558	2.296705497733964	8.195661043431118	14	-0.7805168698006526	1.7124595016524906	2.558885113671947
Si	21.32484165254691	28.100337490590903	17.085700209401	14	-1.0748282104716191	-5.235518366359121	-3.1388364852111486
Si	26.658298712844637	23.242444429339667	5.275264733833318	14	-1.6887125158050706	2.9248642153683173	-0.9688894153023657
Si	27.35255923553201	18.221332574342284	-8.66362025208751	14	0.3107389038929885	-0.3364895521163996	0.14688544716633564
Si	27.001651078962315	23.125824576708077	9.335732802762495	14	2.266981098912235	-0.2211042588903902	0.16752139557637616
Si	24.162908266181862	13.813190344756729	10.959071351406612	14	-0.6177144809288764	-0.05919275801204513	1.0090871043196887
Si	1.1754693146007307	3.1571836103780084	-12.97842739961733	14	1.1180960563517313	0.5417079796757228	1.2752546119352504
Si	10.562044453115552	4.464580358266677	19.212611121698416	14	-1.4907546325593137	-1.3133961880280511	-0.2096363578309337
Si	5.378958402799272	6.54865552469412	27.85946359497478	14	-0.6824945079121353	0.7695487916154331	-1.459780269656958
Si	-0.5413611159009801	24.531476000435763	-13.587281030230393	14	-0.7837922008679894	-0.38456562205572054	-0.769877378875348
Si	9.921242862874006	17.331474098825176	11.213488829908183	14	-4.546053591924063	-4.75856033173441	-3.4817496868594064
Si	24.47710566914164	-8.212801221771677	20.885518007704764	14	2.0596993593334934	0.2710304962180896	-0.8007884925868283
Si	16.402053073301865	10.693285887270365	-0.5338053254489671	14	-0.6771607499254881	0.44460118839171014	0.38120930117079915
Si	3.28334865094768	0.5313259285820938	4.6274463524586436	14	2.9476213256674795	-0.7426612006194525	13.071231024237411
Si	20.87747221787195	0.7730230231579681	23.21273086688765	14	-2.562667209597885	0.11977776955495041	-0.7578942283097339
Si	20.418391797995742	-0.17982977275543505	0.6675947563839643	14	-0.7557838650629563	2.3314124840140824	-1.4964285477798167
Si	27.041625228448385	-4.617460165077837	17.12865355512237	14	-0.8409062202286948	0.06003093834641339	1.0358844495189323
Si	2.9346748915544576	-3.5117667623037385	-2.498879242254107	14	-0.2124455475037275	1.3105168071800173	-1.1982188972224417
Si	41.657444358951324	12.742453497809258	24.03312703018185	14	-1.694110037203658	1.4340723017818613	0.7544728584602128
Si	29.765374986541524	25.736090478206776	-11.843500633784407	14	-0.08473488959399218	-0.053929705421701994	0.45793956857157436
Si	5.604456117845732	-21.120845110330176	-9.3322048072207	14	-0.6308245469563114	1.3331222222652912	-0.5166481874518356
Si	13.827566926589547	-19.962898173587035	-7.479899347914023	14	3.9747156803178894	-2.202703723019065	-0.40408313965149656
Si	8.108068754118415	12.191096394539857	-13.16088356905388	14	1.038140594437362	-3.3504402528330597	1.165094576051378
Si	8.693716014056552	9.796293020768731	-0.8345277454366117	14	0.8273112437378798	1.1060959364910041	0.45371344275684694
Si	7.585161014898553	12.029288799010429	21.303262079816264	14	-0.16225834298603303	1.4655542008744145	-1.523191697278302
Si	-3.628435614873409	10.998780901227049	-3.781942620892	14	-0.7963111697823224	-0.028320982211963105	0.3284147387479425
Si	31.90170368693801	15.532980371518502	0.367891535108394	14	-0.09932796917008865	1.198227896091062	0.316858134554941
Si	18.346880215692142	5.86916358334421	-6.167955405771483	14	0.09880114968999029	0.19420998302057724	0.7168928117693324
Si	1.8920248091147307	8.045319433412528	-14.776754527134528	14	-0.8448613515426786	0.17574559016393382	0.896611788095023
Si	-7.408085038663242	-17.43385456945057	29.77105897935886	14	0.9874949618410854	0.7459200766127402	0.4166995534574632
Si	9.800752015134057	-11.266751762601688	-16.014404763159416	14	-1.5256992962970424	-0.24746760151159256	2.212975802994121
Si	29.079277853538365	-10.884385645784313	-2.924698504161268	14	-0.9296754311805312	2.2703716154979148	-0.5729219695939166
Si	4.050295681783666	14.416016982985889	-4.101804416693888	14	20.3929925841447	23.321309536847444	8.655796524561234
Si	4.280575790786784	8.209557425870749	-4.852463868111915	14	0.7820387070396483	-0.23960439011098367	-0.4095040581084967
Si	14.209168644372864	21.45066369355002	8.612444716756235	14	-1.0505767737603864	-2.6852207444564673	0.5941199616269415
Si	33.56052799074003	-3.0043822034677774	-18.080389152447538	14	-0.13275388099520577	0.07900620983017025	2.213972620526742
H	42.63453154424058	13.719540683098515	25.010214215471105	1	-18.844848052623828	-21.91785807098642	-8.854797505235373
H	12.156998317628398	29.2111925468424	-2.551881495277022	1	2.2094541600371143	5.884174814263319	-0.5215461430867177
H	13.418022504116442	27.52456567817351	-3.0998321228510677	1	0.29455148190786823	-0.5629383676357815	-0.4888835924311526
H	12.856641973513293	-19.24991967455291	-6.339385609141159	1	-2.2768595426627765	-2.8036090886964096	-8.961138421276699
H	15.522033785351317	-20.676526411800104	-4.312025911044372	1	-0.23777222045984617	-0.20816517136674498	0.8714136704049117
H	24.110518512384953	6.172485940046406	9.654585199839925	1	-0.9867889363201727	0.026466958165604324	-0.4251237800389284
H	26.69563764566074	6.9903674265183104	9.724176871899376	1	0.6721548078671599	0.08238309955765273	-0.13185425124368594
H	10.710190865908137	18.120422101859305	12.002436832942315	1	-7.759726211246634	0.27877697943716373	2.989607218434966
