72
config_type=liquid dft_energy=-6952.066274387139 dft_virial="-9.372601613469593 -5.86432064621719 4.483069903129437 -5.86432064621719 -22.221111129900468 5.716843353335425 4.4830699031294365 5.716843353335425 -15.547463876405295" pbc="T T T" Lattice="10.930362605800001 0.0 0.0 0.0 10.930362605800001 0.0 0.0 0.0 10.930362605800001" Properties=species:S:1:pos:R:3:Z:I:1:dft_force:R:3
Si	-0.3721897770900958	-2.841948929321029	-4.8599452646916435	14	0.1433252376295266	0.1961452539950527	1.2341750337931165
Si	-0.18807874935800062	4.582565452844256	1.6828714178767854	14	-0.7646048131953204	0.42903494545193765	-0.5735452055235205
Si	-0.8109891838999369	-4.887085355041844	-3.8991117398287938	14	-0.6216109910415607	0.6596443236003833	2.5173779607150726
Si	4.805479267826941	4.2616281460127565	0.3740807298208992	14	-1.0035977944611727	-1.6405953081806277	-0.5091125348690136
Si	1.0291155000612817	2.948913457781388	0.6446072043144493	14	0.5623061328375573	0.18328689917846014	-0.1353864357325054
Si	3.5038042458274306	-3.2289493477419837	0.8069340193731851	14	0.2520043168489938	1.4358273382733944	-1.2807768319418644
Si	1.5293107536279014	0.450003028480786	3.634148819901596	14	0.09581815329755451	-0.05361885878849609	-2.117141194622518
Si	5.001832301677532	2.7912101861049057	4.606131314622361	14	-0.7654221675765954	-0.983060576495426	1.0042210303907766
Si	-1.4666251240836383	2.9465197083707175	-2.8079773623422026	14	-0.6909578152944666	0.32362914041555096	0.2308214943373578
Si	2.4207911277569494	-0.36571900242746225	-3.9522660931807994	14	0.6275517869942949	-0.42307897997781463	0.399437666559053
Si	3.8382405504770936	-5.214067152394351	1.7873547540256278	14	2.1047322690158867	0.45007121496032526	-1.53204761244302
Si	1.8929201960724442	-2.6299873376693554	-4.414259729440148	14	0.4128657783145904	-0.6005600662328484	-0.23267757526797275
Si	-1.1208103119613377	-1.4182801302781851	-1.3560207848755481	14	-0.9921877432714197	0.9159567845238172	0.7988164548062747
Si	4.809927925407502	-0.7143429177394532	-4.369652919645878	14	-1.2808408524643362	-0.3242428632554703	0.6738028863773747
Si	-5.502519421561413	-1.9200930775104628	-2.358280384014379	14	0.3568205674354706	0.44189124338427405	-1.0147198818550693
Si	-1.630974056224447	-1.323240627420754	-3.6041231138234635	14	-0.0500871885207407	-0.056464558156836	0.15761518388837764
Si	0.8804079168093726	-5.40636502171819	-1.9692359877861396	14	-2.640431318447892	-0.812347924995682	0.29853412404877766
Si	0.6910831061143109	2.777164670156453	-1.724986104996933	14	0.4398487573179484	-0.010002885248036102	-0.6683732261622859
Si	-4.276384135530587	-4.990563097830953	-1.0595128384680115	14	0.0860461533072677	-0.005712738910837017	0.0605207339099016
Si	-1.2050943380146617	0.8879826580951922	-4.309732671840882	14	-1.064718110131733	-0.7297714783179541	0.8758313435659902
Si	-0.4726616701626094	-3.1190992035536937	3.817658677690372	14	-0.05734053373941044	-0.7416029336696794	-0.8816790655061351
Si	-0.19273508382807142	4.363302378971908	-5.136297622454085	14	0.050662859001921856	-0.41868470387514956	-2.8444788646444197
Si	-2.66659312203618	-2.635037165193235	3.260702051111833	14	-0.5599479150379174	-0.09349258853548056	0.9295769578467696
Si	-5.1256514492760346	1.3039594677841226	-4.599922868662267	14	-0.6153511209185961	1.309058733352961	0.42881383039440485
Si	5.46497362601049	-0.3753814429709894	3.053309351029384	14	-1.0709633249543724	0.7741055615743315	-0.4612933183511755
Si	2.84913017755304	-5.581414778850078	3.596318834922922	14	-2.157533002091512	1.402502470887359	2.5654023514374584
Si	-3.515510664178243	-2.671675740647877	-3.379132529945676	14	-0.10607274975643312	-0.18758295905789557	-0.545426826410785
Si	3.780506375193258	1.532884982199998	3.196311285001065	14	-0.33136919587132474	-2.126094811789401	-0.6024488002010291
Si	2.0440215287350236	0.7815646477651232	-1.8566095314959767	14	0.7547903899672511	-1.055377541614167	-0.543393082102548
Si	-2.953821190591392	5.221937013470527	-2.9169640078846344	14	0.14607503476942496	0.28644401550184534	-1.4547231626027586
Si	-4.060881106394634	-3.3119982428208523	5.189353602542638	14	0.44873141197799604	0.8841414130712407	0.16210639066161228
Si	4.208091229969549	-5.750146786395812	-3.8345132968285154	14	0.7357834938880564	-0.2589108199599756	-1.3077245868023366
Si	-5.484058039120217	2.4522487113364417	-2.47312570391352	14	1.3019853655067017	0.04803030426462224	-0.7113022003612024
Si	-3.2937554676317724	2.363931381481578	-1.4752929016300378	14	-0.2449877704303097	-0.28223588742435896	0.9914927735033835
Si	0.9166202081223881	0.8954262350297418	-5.143150959807921	14	0.8609523570782933	0.7420893867962515	0.18674117917607908
Si	-2.228460467345293	3.276081071298194	2.155992163268839	14	0.11922986701122687	-0.2740636291642683	-0.6809754988889918
Si	4.3817091096000755	-3.790015790660304	-1.4667234973470906	14	0.03336266263424147	-0.1466900431620044	1.0177049351317613
Si	-3.866867170141684	-3.2773271326352553	1.371104685271552	14	0.33893673016011655	0.29826030133218184	-0.7206224571467392
Si	1.1525302242433695	-2.6105859440440606	0.6589478400532589	14	1.2702394138977697	-0.3166935838144515	-0.14011444130572567
Si	3.299723445614539	2.2903919018697554	1.0626389221732704	14	1.156204722296434	0.6483132053439586	-1.0914329228501995
Si	4.955760823294086	-2.012585805880742	4.636867494269871	14	0.24395932830225048	0.450674396268432	-0.43231130496140235
Si	-2.1143474817407406	0.7804169596915144	1.7221879321698481	14	-0.4276234086311763	1.0197217101448854	-1.6500986276649592
Si	-3.1261383570718295	1.1684339018348087	5.267833606052282	14	1.0585870523853078	-0.48171766479336786	-0.5097411701197898
Si	-4.666139005328203	-5.266358007100498	2.2836041466915535	14	-0.5742725712185903	-0.6180677507998646	0.0824833726651385
Si	5.344881732060566	-1.5812190456428457	1.1299371647371808	14	-0.8319600592672396	-2.159939299560639	0.8811414473836922
Si	1.4693686450976942	3.1069555706986502	-4.234805036178123	14	0.20544237083270814	-0.9050501557557491	0.10168978651717667
Si	1.1840205989106793	-1.8972267589391294	2.8511413642725074	14	1.3104774692686192	0.667523218743445	1.3500161839923883
Si	-0.0866012629257534	-4.537685383984841	0.0213579285317332	14	-0.8593258758527677	0.08980253818000404	-0.12371361757903311
Si	3.1640667153139552	3.9687928014407685	-5.596017743291427	14	0.5957168751412855	-0.17716201208480337	1.2396152355400176
Si	2.8973002855568004	-3.134685900629565	4.2601853381487915	14	-0.836623530096924	-0.09516303566198078	0.23294137067381993
Si	0.141110981240878	1.0280224638007016	1.4013271378765892	14	1.2412422309866076	-1.7537815350263146	0.5737403524173197
Si	-2.076889129090664	3.176516398321961	4.56691317359275	14	0.0075099415296205245	0.1973590728166946	-1.3381050243757382
Si	-2.9527062936056003	0.1323448304310264	-0.34606621046223385	14	1.1388564462592667	0.5342576877895299	-1.5799922989004813
Si	4.26325677004102	1.1670238850586603	-1.0152995217275504	14	-1.9442420751585197	0.3144068427427118	0.9847382227168225
Si	-2.2433913426648155	-3.546203122375329	-1.056157217148031	14	0.289008950169225	-0.2098451315829297	0.9736202490914383
Si	-5.119923939270596	-0.3878967081546304	-0.6654186147158925	14	0.12672489612999052	-0.7779017985795301	-0.3864309589654879
Si	-3.845279703995229	4.011104235087821	0.43038302760337505	14	0.45090091064713694	0.17755924785676624	-0.3739083905037067
Si	0.49151654565761443	-5.382853811753115	3.635045109635272	14	-0.1410714067058848	-0.04103355535690327	1.214515076962604
Si	-4.187542148270644	4.073713352093843	4.075943146065426	14	0.35367276319201324	1.381999705732902	-0.6478460355072878
Si	-4.54573013086271	-5.433330226266699	-5.039804381370082	14	0.10052430447555355	-0.3832222195259431	1.607611369360044
Si	0.8612251304361936	-0.5437199574629152	-0.3661343562064826	14	-0.6245875596706961	0.050932567950005385	0.49722734341609703
Si	-3.1904744713695683	-0.34644877315343686	3.359851370309045	14	-0.3037120730530239	0.07624895648484345	1.4501581651068358
Si	2.620827693805695	-4.4808912198851045	-2.886665042741357	14	1.2495384165231294	2.2282476543747363	-1.0790041997326036
Si	3.819888471661955	4.0240457844130875	-1.8214356246305123	14	0.03387148437709878	-0.16129880648055378	0.24681299809708285
H	-1.9803521665562385	3.1131028066281523	6.102448768724655	1	-0.8951388018571101	0.7309984097767288	1.6452598074524405
H	-0.9188970026531762	2.373955617027357	-4.783911476333177	1	0.7604540207664733	0.3031621136250442	-0.32663090587682386
H	-1.0431795976261646	-0.3864692027983129	-5.239478059380315	1	0.13052730378795752	-0.4828337816128441	-0.6121925180327943
H	4.630014156916034	-3.0599145691520686	5.649879291104027	1	-0.46347258722053297	-1.3160971341668668	0.9249173436750652
H	-0.28861513156988844	4.222230747036411	-1.6296744361106177	1	-0.0018074870400640996	0.47810577603962373	-0.3958471179794662
H	2.2499211412855202	2.654813470255909	-0.942577633238642	1	0.6223710097741965	0.6153045839123016	-0.5123266736297307
H	-0.5445637814560831	-3.31743937732602	2.2054914033654645	1	-0.04556667114685634	-0.18729576659363503	-0.3500973841338153
H	-1.5841024752982555	1.1903099295540565	3.030316240251823	1	0.7497697926085979	0.5465575985305862	1.8281610408328781
