72
config_type=liquid dft_energy=-6952.0486310622 dft_virial="-16.620872821538278 -12.906824460742893 -1.60382069093057 -12.906824460742893 -14.513028243339038 -1.1033714411602584 -1.60382069093057 -1.1033714411602584 -27.615266220658903" pbc="T T T" Lattice="10.9076609125 0.0 0.0 0.0 10.9076609125 0.0 0.0 0.0 10.9076609125" Properties=species:S:1:pos:R:3:Z:I:1:dft_force:R:3
Si	-0.29673200746365	-2.7931574528466125	-4.713123926664863	14	-0.5947768790362393	0.15291263225782678	-0.5118003683706963
Si	-0.186193771776375	4.6566549661208505	1.5832360737884625	14	0.9456558791873797	0.3985272381651886	0.7375508716851261
Si	-0.9818967276823376	-4.731710580859763	-3.6550917258132753	14	-1.0838677025561958	-0.3919441801034815	-2.3700397419018593
Si	4.876498871812288	3.9181190610573005	0.40404157552082504	14	0.3120630231328648	1.5059010140003062	0.0806897695938032
Si	0.9615321247587	2.836973526732125	0.6893314466872625	14	-0.16726917014446963	-0.9756977021901179	-0.011763578171273506
Si	3.59180547719895	-3.093794402916938	0.4530715113225125	14	0.3128271556340128	-0.401278320857747	1.2141792906077928
Si	1.6733551682475376	0.3550770856846125	3.4370912148160504	14	-0.33472423120358596	-0.6278382081269595	1.602384569354715
Si	4.666962705683162	2.3114533316287877	4.310543977706313	14	0.7075967233738051	1.5266878862926392	2.195438036494859
Si	-1.6411993838774879	2.9208970697929004	-2.8588542945226	14	0.6366298456586738	-0.0827610520397145	0.8213987299436671
Si	1.9908771774104126	-0.423500842588725	-4.174209123960976	14	0.9415241129379017	0.5654403102228177	0.22213578634483358
Si	3.7928991137818002	-5.088849214456838	1.7077688384264753	14	-1.2562955384150105	-0.2717092680226087	-0.1166294510904291
Si	1.9215808076333	-2.6941158917611125	-4.441555892926351	14	0.7102642451434587	-0.5478652626964134	1.177202682335551
Si	-1.0976815482685252	-0.962601075528125	-0.8564040888840251	14	-0.5317050944276868	-1.2874084838941224	-0.6495262528340044
Si	4.3974344045352876	-0.5130418310194376	-4.468661430293913	14	-0.1006677721524178	-0.2750169950169792	0.15250562628564734
Si	-5.347186255508488	-1.712131902791475	-2.832032356338763	14	0.18346224856129426	-0.519779793731776	0.844608354779176
Si	-1.1688104050789376	-1.1672397019075376	-3.2030891652601876	14	-0.42475996863612747	-1.4876615928591757	0.08144644588952278
Si	0.5354243512118875	-5.544134980944588	-2.3563383562837252	14	2.515175294787302	0.5080473259348762	2.4702246604751528
Si	0.7266356470080125	3.1163078150403374	-1.7930231161185752	14	-0.28794348412455567	-1.1080132097282385	-0.5144694328035421
Si	-4.197071581233575	-4.786139808813138	-1.3999437398148125	14	-0.5403288387819954	0.6869561469741883	1.676558900956731
Si	-1.423078888610225	0.87047497146115	-4.006482022109463	14	0.09534866946609548	1.4279240176297912	-1.206835185371322
Si	-0.32479741899151254	-2.97731149203235	3.704579783373288	14	-1.569051217321123	-0.6082654117668002	1.305299006043309
Si	-0.5846179019272625	4.4539906263666005	-5.501878702569563	14	0.23717006759386747	-0.23727316891720537	1.4160609376826279
Si	-2.7901360307738505	-2.81683798468765	3.37330321379975	14	1.7032516021694444	1.39386972766443	1.1686018208185918
Si	-5.188577958179826	1.4252931437754628	-4.462607678487475	14	-0.16608003393390114	-0.1827533948245294	-1.9991729689918871
Si	5.446784107300526	-0.4425347108810376	3.2374155741518256	14	1.0522479922184826	-1.4056021954613296	-1.238248435951827
Si	2.752820922792188	-5.236735281108513	4.0194294156126	14	0.9795857276552459	-2.9490732288417676	-0.3516325911204758
Si	-3.1393666102093625	-2.461619099411175	-3.4505512683820756	14	-0.6776837127476062	0.20519683027463398	0.8336410479255524
Si	3.7376299959381627	0.969887393017675	2.7647429961695504	14	0.049836248641494246	0.577859263140197	-0.9984944075112108
Si	1.9605102494300128	0.664036581031175	-2.089907830835	14	-0.6150420740591145	0.24662942117722425	0.23932876762066377
Si	-3.229245736128363	5.793593186013463	-3.354574760012988	14	2.4625871921216533	0.18614673962606085	0.9113393364793633
Si	-3.843434306789413	-3.1946248203920877	5.421118381173414	14	-1.0779418190143186	-0.08314054718496836	-0.9652369030845634
Si	4.420613183974351	-5.760979279885088	-3.7707892851121625	14	-1.6151583348062746	-1.0397619334522474	0.21103143957764603
Si	-5.272010656499538	2.5413322853597253	-2.4920732886788755	14	0.4705323282085956	0.4804547378601111	0.9095218221285507
Si	-3.220748668277525	2.1393958883950126	-1.198904641536525	14	-0.45174269052895344	1.6813691819001961	-1.0773268106217389
Si	0.6172536233774626	1.1001357719738376	-5.359315574443188	14	-0.5324656273813866	-2.118153181676528	-0.5646242413942026
Si	-1.9842016889319625	3.245792657732625	1.8675224401509503	14	-0.8425848948922194	-1.0783490820970298	-0.10221120667610269
Si	4.577792577723476	-3.502482641986488	-1.4654769665771126	14	1.1070181919693411	0.19082152331915408	-1.3639572312592951
Si	-3.4493514256817006	-3.4270561667765507	1.3199687700043625	14	-1.9795541498464975	-0.10953191485416033	-0.17220234992223774
Si	1.3817170384300252	-2.6942358760311502	0.5991796292454501	14	-0.9228069804282877	-0.6504397665542532	-0.28638565141107797
Si	3.280533557738938	2.4911243221794876	0.9273257001371	14	-0.21275433725267728	-1.8444999009213554	0.15255499150779417
Si	4.974166067622813	-2.122467198658813	4.768273060238463	14	0.8169082945020286	0.750673793239162	0.4678187836537114
Si	-2.2639395606939376	0.7530540017380876	1.8708165537465251	14	1.5492963867042975	0.8066716957803911	-1.0891063296459975
Si	-3.0818396065568376	1.4065537823277876	5.3448411084123	14	0.26927623105815257	-0.28050939020187954	0.633092776069746
Si	-4.799447155126388	-5.424390679447163	2.1064329371174377	14	0.9334505851221047	0.41645735533630523	-0.6883144619148225
Si	5.358617484144788	-2.00365004833895	1.3354467408392001	14	1.3596953670806176	0.9884591263361407	0.21544757007553236
Si	1.2493743885786626	2.90043429792105	-4.298436474093438	14	-0.837387148377008	1.977061206128082	0.5549527716219337
Si	1.6394541581314874	-2.1985481335235	2.882142150570788	14	-0.09775111027724183	0.9332577522230935	0.022060854978466563
Si	-0.31241722385582504	-4.666657291177613	-0.1164174649191125	14	1.0966466102183958	0.5742903118452994	-0.6999494848200886
Si	3.1740747872329376	3.661679953004425	-5.164701088442363	14	1.2798041827992526	1.1516353539214668	-1.3899865872994102
Si	2.9830598293332375	-3.154920934670588	4.523406980413751	14	0.29961630227802794	1.3309552947014704	-0.053636856525737145
Si	0.3149805241702625	0.47526860127945003	1.73636872533905	14	-2.0114420264691018	1.9255665945550922	-2.0279289822240196
Si	-2.2044600857380754	3.272189197140875	4.136163202698175	14	0.009177560440268568	-0.00017046428272581764	0.9042364009219221
Si	-3.0957359665593627	0.0795495710348625	-0.2782762451997	14	0.7973527245475144	0.20960987544613616	0.7148151015601207
Si	3.8605702420829506	0.9442325745514751	-0.8865746789680001	14	-0.9229445345629156	-0.9205456932992174	2.154713527997438
Si	-2.173842281556688	-3.300778176392538	-0.5348135222007875	14	0.34172715076407323	0.4302096834727133	-0.6046951749192425
Si	-5.158440091078588	-0.7909908463917625	-0.6975994536589375	14	-1.015756808630685	-0.05727548477481069	0.7260433756037394
Si	-3.5711463674306754	4.165493902891887	0.167301703075925	14	-1.4665132231588296	-0.6844284933339506	0.1961606806269736
Si	0.4856854174508875	-5.2643752938607875	3.737215504823488	14	-0.9142063760218605	0.08700903224966315	-0.9720382479879509
Si	-4.445591727463976	4.185891228798263	4.033205791345088	14	-1.112778753439133	-0.7672818480546585	0.2221918364408128
Si	-4.63169823795305	-5.4221327936382755	-4.925528807613976	14	-0.2478910625578209	0.0731610589953456	-2.5142155011712903
Si	1.1178279979739125	-0.4862089851746875	-0.20737644926845003	14	-0.6725358456756056	-0.441472924548686	-0.006032841523195452
Si	-3.112326518807275	-0.23154782585055003	3.7169381631871503	14	-0.9256729915286568	-1.1516132424157133	-0.240061018415842
Si	2.9733847341038504	-4.2655935070859	-2.887061505642325	14	-2.164737753419631	0.011474328822756848	-0.4824177767720441
Si	3.8968054916342756	3.918980766269388	-1.6999262302303877	14	-0.015031710143713729	0.2775497908678571	-0.8427407038746204
H	-2.1266830096014937	4.310746860199285	0.028293381640933753	1	1.7395137002732166	0.9158099744100368	-0.6303370653876114
H	-2.8027736467070725	-5.625319610350234	-1.3571017200487863	1	0.4012862912842395	-0.12100238701893697	-0.22976811248769313
H	1.6938528446343075	1.8990903015978164	3.7726337705724666	1	-0.03821665236814903	0.41747191349563567	0.1076961456555746
H	-4.052996651304728	-4.475869212624892	3.13812531839752	1	-0.0002632811847831633	0.12137314040610231	0.5088770216216881
H	-6.027822114916305	4.830961569034783	3.9605182297902792	1	0.22571990716112	-0.0710702361490012	0.22493854825432702
H	-4.188033493401478	3.2415790283221266	5.435628842485311	1	-0.34603658039117347	0.06836929001018563	0.4123464150399205
H	-5.9734790574841385	1.246220983808859	-1.7857553416525762	1	1.8137571946083446	0.19136454076276935	-1.5215338485678707
H	2.1195134040837074	-4.846338098623134	1.419635340060149	1	0.41836485837332316	-0.6139871495462577	0.004225868704195382
