72
config_type=liquid dft_energy=-6928.560030502783 dft_virial="-19.44093282053758 0.40961630178887165 -5.856834193533699 0.4096163017888716 -10.366008123447108 -0.5759522033440212 -5.856834193533701 -0.5759522033440212 0.7411565681538975" pbc="T T T" Lattice="10.7213906085 0.0 0.0 0.0 10.7213906085 0.0 0.0 0.0 10.7213906085" Properties=species:S:1:pos:R:3:Z:I:1:dft_force:R:3
Si	32.497917993752	28.21925759388364	-8.864242048686238	14	1.1197765307889798	1.9524647270828854	-0.06144530338302685
Si	28.34228555111618	2.7302342826263506	11.17190344186917	14	-0.610484018547556	-0.9009101619692467	1.0783650229500148
Si	5.695770924937451	-8.128615274865227	8.835766035230062	14	-0.6338247697543923	-0.28286786511205136	-0.16270802930652695
Si	31.162676007369406	5.927385126252876	43.00339051678741	14	-0.8230360098115376	0.24856314948850763	-0.5291640710397844
Si	21.950342569796998	9.577557608650961	-6.21476128012311	14	-0.3498731837498984	0.0839383611658103	0.9090680220395445
Si	23.99492248022856	14.97856534158892	1.040703943585878	14	1.5119716507717078	-0.6789196430750013	-0.16619676211543585
Si	0.38236767466154403	-6.231765405628192	1.5937990422971762	14	-1.6876938438772284	-1.1679934972998447	-0.37024842208047587
Si	17.403958325043792	5.384389577494786	8.438399135107227	14	-0.8823028156568029	0.869559646358553	-0.0036252585014087918
Si	25.058720299185143	10.300168614273252	0.4550479815965655	14	-0.6401939118534631	0.3864219600968674	-0.14761512685619368
Si	27.741855512868355	3.6268534578245974	5.547612028118588	14	-0.9097141408064976	-0.4415012067072076	1.065049268496968
Si	19.71542581189274	-11.740608885306445	5.968362281158563	14	-1.5010673359984277	-0.6088505953376658	-2.9903160721717312
Si	10.750145378111998	13.913416627415662	17.407721533147374	14	-1.1276487410582092	1.0741818345941339	-2.567931290630356
Si	8.134083184075562	20.294498840048433	-1.6006285681147907	14	-2.0457431425451973	-1.3803164030798012	0.6028300951200071
Si	28.820438129474063	26.26847912988585	14.239979463959964	14	0.4720438810263106	-0.8228789152764765	-0.7164958331079015
Si	7.009334259509654	-4.586492967019606	-10.51353500877301	14	0.6200634427493636	0.3831247746343095	-0.3175402487963762
Si	23.731036893181546	-13.180073509794262	21.88322666458779	14	-1.3320847812686114	0.8836205071333789	0.32781027188717576
Si	14.074312536277422	31.220785944467476	-3.2690699318283434	14	-0.6144188381295105	-2.2426067633666995	-1.4511760657030823
Si	-1.0557674973908207	26.17876253327392	35.66163954146122	14	0.6401082940463021	-9.629838692035708	-0.6703231524370863
Si	39.24939208773662	2.2293952417408818	3.2870497038787985	14	-0.17643027551068924	-0.22951640127685066	0.49284797972428884
Si	18.586206067443086	-3.3332481760108243	15.763253198834427	14	0.3340462307306629	0.4124842262850804	-0.6453510349046161
Si	11.820429638386726	12.463177005366301	-9.696318452421316	14	1.8044536500073887	-0.37611491308945777	-0.19969903576856138
Si	12.338573003714316	1.082538809740245	-17.45171139881405	14	1.1951471976964607	-0.8236319920247478	0.04914744952622658
Si	33.42738750977469	21.019758029151024	6.834768577622056	14	-0.6535016958800175	0.5155562390223686	-0.8349602820653202
Si	20.60506536180485	-21.871036443465925	-2.8660743016360453	14	2.0623722804243196	-0.21613379808547992	-0.08522802759439659
Si	21.606143045701714	13.530384226536393	-6.482410075273704	14	0.05178720335842261	0.6236429355760738	0.4359918422271943
Si	54.72109851175411	-11.415289730072729	-8.46861201384198	14	0.2593509931907849	0.2579160593116103	-0.6215171456973754
Si	12.53996360490438	32.40884468057658	9.329732664735483	14	0.1318185128797359	0.4521574098170933	0.4943194232990096
Si	5.94007925273334	-6.17444885143515	33.93022072931333	14	-0.9592297726145693	0.26685733517295723	-1.2398396930344666
Si	9.496396681744615	0.566861364252612	9.790194948589342	14	0.6079872181711601	-0.2872158613189537	1.4284552079889339
Si	20.805437430887107	28.680856345142	18.52491187733429	14	-0.6789314701594741	1.5929617254669044	-0.47665078753895196
Si	32.319020870058566	26.80665005287012	-1.97337915540051	14	1.282036159327673	-0.6295490216069859	0.11314328938684032
Si	30.32030706865017	18.806787957822365	-8.623364565885069	14	-0.5633433167237049	-0.5579661070571472	0.4038723090152444
Si	23.963787561901473	25.088214844749128	3.4416628778439766	14	-0.7530471805601906	0.6261150533413962	-0.42761415265202374
Si	26.07792785460098	15.57025744649082	10.23450009679619	14	0.03695963897712863	-0.2008927999687061	-0.5698122177091974
Si	1.4521694723588912	2.7114825704520844	-13.292358633637082	14	2.6204083215461744	-1.1932803181235014	2.710578784897492
Si	7.901118087543466	3.6800851621958	20.048174890818146	14	-1.0576627400227145	0.5465696827255909	-1.3464922270405932
Si	5.481310948595625	8.038437658457134	29.924366113478268	14	0.7372330830675559	0.8065943055102545	0.32875155354488195
Si	1.0731790357390245	26.633521037324055	-15.912001772136755	14	-0.2259261098077959	0.16758413054618776	-0.2951286950522415
Si	10.498975360326668	19.323623313495716	10.822053744923208	14	0.34139496395671015	-0.21906871480842896	-0.20768334622974924
Si	26.406484869798465	-11.313693832666582	25.567825532229765	14	-0.6476282628866712	-0.4535275518422002	-0.8296746037481599
Si	18.228390377275005	10.222878109376575	3.6566482023256186	14	0.6910498608649279	0.4299410029667578	-0.6515520267157492
Si	5.72407539614389	0.521595653103525	-0.042049293966537005	14	0.4593156241389176	0.3396476407811375	-0.4837130996323347
Si	19.09557933525292	-0.659129651829363	22.477073769001997	14	0.1816485908684618	1.083366851239831	0.22693398309329393
Si	26.99884170091809	0.024616312837116	-2.735016022837742	14	3.812357835555967	1.0050543256250366	2.0952541463636933
Si	29.936835090755952	-7.1606666879486305	17.074725862237973	14	0.601004096121638	-0.10304912989993896	1.0756159971417125
Si	5.595118509904853	-4.947439303245368	-6.100288992596155	14	-1.284572297615467	1.4884120985021267	0.7948602950501629
Si	47.12790948387737	17.87284762191593	28.17774436944753	14	-1.2430160365469778	-0.3786726486619411	-0.310955390960945
Si	35.36074371403367	27.35055691982993	-17.033984577925672	14	-0.6341073342290765	0.1513154616329508	0.2900936995037955
Si	6.29066872563129	-24.073424502263993	-7.4852782314021855	14	-0.27937578986622624	-0.17700311777601824	-0.2477038860905141
Si	13.19052686563755	-24.356244065125615	-7.887019458893289	14	-0.9028917128394848	1.0686593574769878	1.109659745575261
Si	4.587093364893683	13.70651523145283	-17.243201794259942	14	0.24793991355890377	-0.8369127794454407	-1.0833732790031312
Si	14.070763755986007	13.260087247905497	-0.9078551925559545	14	-0.2521200165884005	0.2783190655796454	-0.1273908124079089
Si	9.61587585868574	12.308531667229296	22.710746477314252	14	-1.9622714369949943	0.03591705576980859	0.7511731018923347
Si	-3.302231192980434	12.201114054722735	-4.844428182278899	14	0.8959091050110266	0.5266281898625225	-0.2919271547075931
Si	34.66143029020365	16.888162944259463	-2.243686855422012	14	0.6568842420392043	0.0544035601322053	-0.1945167158852709
Si	18.41276613156938	7.4012975787658055	-3.3763481662569945	14	-0.03614768391702587	-0.1902003442738063	1.0938777868991283
Si	4.02824087942562	7.202833917211862	-11.215560944426983	14	0.7143607872500506	-0.7539259843586172	-0.6553919725113904
Si	-7.00757595144986	-20.534926024444047	34.675957774478164	14	-0.17273251183925226	-0.1232207366891607	0.4177074267429612
Si	14.228593347133737	-9.333442265886024	-15.815905948112771	14	-0.6157663544278001	-0.8761912983108109	0.34181174012910615
Si	31.470755166504656	-7.9826864272929345	-1.3629138955431286	14	3.9431070257330534	0.7016890946797008	-1.4635644224671518
Si	6.289542979617398	20.766572389931294	-4.658337005487165	14	1.3570558703589537	-3.0156422309067854	0.3551346936770494
Si	6.379645546291232	8.880635054926636	0.454351091207013	14	-0.06380712073011488	-0.7980453803207622	-0.14636659811272978
Si	14.715012117650772	17.055706115298495	12.729131820800752	14	1.313771312294261	-1.0560604271871983	-0.8840390830794989
Si	31.788440691625116	-3.325164247492016	-17.45520657215242	14	0.5025806418031774	1.5833735595070082	1.7241289773690467
H	31.20904816602929	-4.755999224679052	-17.79567826873313	1	0.8704402499307039	6.651004147781631	1.0803470880413168
H	27.444872993012904	-10.275305709452141	26.606213655444208	1	-0.6416165044271009	2.1010244780337013	-1.260503666492497
H	33.956135402553144	27.34275067532788	-9.025543226113	1	0.27027767658035023	-0.08251576859217237	-0.04804470245441506
H	14.926908609498106	32.07338201768816	-2.416473858607659	1	-2.4491336264234462	1.2606016256051946	2.1978263362267443
H	30.00768096775786	27.455721968169644	14.239979463959964	1	-1.9161733183784635	1.0243944369537226	-0.3498361598332883
H	28.820438129474063	26.26847912988585	15.91899426309162	1	0.9224717082945404	0.42874980987193323	0.5155541821381125
H	9.304520242580535	4.372009403618442	20.36064124299039	1	0.43783763873652864	0.500283102089093	0.2154966781871472
H	8.75550463299577	2.485111129144215	20.67106624239078	1	-2.379453329810517	-1.128077858536142	1.4076099716058332
