72
config_type=liquid dft_energy=-6953.892147221781 dft_virial="1.0006266991647506 7.182359055820617 -9.393943190666093 7.1823590558206165 -1.9813404291918943 -1.734917436114008 -9.393943190666093 -1.734917436114008 2.9869453706410467" pbc="T T T" Lattice="11.0670490249 0.0 0.0 0.0 11.0670490249 0.0 0.0 0.0 11.0670490249" Properties=species:S:1:pos:R:3:Z:I:1:dft_force:R:3
Si	-0.0763847723698598	-2.9909474683223993	-4.636661926521128	14	0.7279390515562846	-0.677174633894217	0.8626037780254243
Si	-0.044533805276197595	4.697442159765879	1.2860353648894796	14	-0.3662706650396748	-0.730377744952445	1.0455083538427787
Si	-0.7256442704646432	-5.220725438810226	-3.834245536970754	14	-0.980979266738766	0.8571946866528969	-0.661322484042844
Si	4.844401503767527	4.472858533903584	0.12272250663711609	14	-0.05802419064403781	-0.6621822616619014	0.4317184080745761
Si	1.5041337000231838	3.0776577974324906	0.36177076557495613	14	-1.1497756734434037	-0.7649755665824857	0.8764283542213285
Si	3.5976541629164416	-3.634385698630085	0.5636669409362067	14	1.1214212668622787	1.2343786653344724	0.02032047378725833
Si	1.7498553895230387	0.09897261942968069	3.5618301252228406	14	-0.34966723821375456	-0.08335394892654065	-0.8618746125566303
Si	4.621588605749214	2.6273617067073594	5.112135553777907	14	-0.8894186067408448	0.0425723618910119	-1.3524512778411006
Si	-1.4484000411337874	1.8249895853530844	-1.9893463304218744	14	1.3609940323778245	-0.4910808590377511	-0.8103807723152368
Si	2.31134212180134	-0.2987549884271755	-4.0258825578859225	14	0.7430818334498287	0.021982950487266072	0.36715641082246586
Si	4.060090806421888	-5.287946694587469	2.0702575258429183	14	-0.81578677836138	-0.1591182520585362	0.20076167359737856
Si	2.3949979453805588	-2.6268194213051395	-4.297401538662819	14	-1.9758743839123016	1.0444991950046203	-0.47937898739416107
Si	-1.6248088025906935	-1.349383153508007	-1.2534761066582238	14	0.9633088312049845	-0.8246974580694173	0.920974039445554
Si	4.645106084927127	-0.23203174985605338	-4.474396853718045	14	-0.17754304989324934	-1.8166296334720142	0.0064503890271875005
Si	-5.534188535391493	-1.7245450484030922	-2.6421140830575514	14	-0.6340507699120331	0.11703414306782041	-0.11441958606776181
Si	-1.6009261107949593	-1.4686748749474041	-3.544476992351797	14	0.8426977664157739	-0.011485641686165499	-0.5312991168976353
Si	0.899408007204598	-5.527913518594375	-2.226225447750834	14	-0.14631697578005093	-0.5695808182303841	1.0303892261181797
Si	0.8343558930362358	2.8400925230639875	-2.0224257399573005	14	-0.1825831876523356	-0.34551824555863164	0.5741072491465049
Si	-4.125508133208072	-4.613631397500312	-1.315639721031087	14	1.0377258751492222	-1.2181310794848603	0.012792534520396767
Si	-1.2756544729041233	0.7568533487148612	-4.2816199267533115	14	-0.637921054750452	0.09142721963180561	-0.11811580707600672
Si	-0.27937658558457557	-3.4664874978733273	4.209219292032416	14	-1.9815909794811188	2.4017250154252356	-0.43016828867705886
Si	-0.7703994167213387	4.375424234288364	-5.714946647115185	14	-0.8257233290921563	-0.07204571350746536	-0.43909670901180514
Si	-2.5756564536630266	-2.6141365831226038	3.7778035869437643	14	0.40592842193976686	0.5597777078657236	1.3542356249332832
Si	-4.922534869883321	1.5409316380309763	-4.476123313365929	14	0.018035275378710715	0.01179314588245521	-2.0733622130047604
Si	5.656567963508837	-0.7265296343866351	3.060935486355867	14	-0.4236273967426022	1.2707538920723311	-2.3943904232784496
Si	2.509774310817797	-5.4887804332423284	4.110401611289084	14	0.5654811907974081	-0.1473132790916083	0.12390567914644816
Si	-3.5439015058025025	-2.630427279287257	-3.311438141034478	14	0.21586048958994816	-0.68976636508911	-0.2026825463820612
Si	3.9713552073402405	1.0772997532308406	3.1311227112717823	14	0.2711901618584708	0.4387735210730625	-0.030949166070218474
Si	1.8871310656278981	0.39719638950366093	-1.8316408818170495	14	0.26962410160796857	0.9093888959834989	0.1605583281483511
Si	-3.1379953487162457	5.983112312037537	-3.4605887607430557	14	0.0009407674366421822	-0.030067276945407676	0.5620881031064086
Si	-4.185723946952553	-3.078775569384006	5.626222115082562	14	-0.36596881727508945	-0.16819811049663913	-1.8430935063112341
Si	4.296726448672301	-5.685342290973578	-3.945502580818074	14	-0.6442650000173855	0.1413110337217226	-0.4866744987400813
Si	-5.346956199988235	2.3733729315859047	-2.5097189755726723	14	0.6525791832911484	0.9010988810997453	1.2337248332515585
Si	-3.289414713474927	2.999369492630348	-1.6314600990546582	14	-1.0278967966208283	0.5510027825185903	0.3902233393127063
Si	0.8872010521301333	0.9099991731214273	-5.396149232903916	14	0.1950929005875161	-1.4262327445501979	-1.268476149869212
Si	-2.1241540545941815	3.424919661735803	1.8300140256103892	14	0.1665104369644939	0.20758667266971165	-0.5667186637879953
Si	4.739164934589753	-3.856722713540326	-1.5929578354970313	14	-0.18695895179669564	1.0975770932337574	0.13770660117340702
Si	-3.524191091489156	-3.2849989609139922	1.8463821911182163	14	-0.07806852771991224	-0.4706973931701491	-2.1424179881354255
Si	1.4264540829174108	-2.7469854396175033	0.5383898009633351	14	-0.8845214224375588	0.36735567148477727	0.5213584523983469
Si	3.7170786889441376	2.4585006726854353	0.8318436729075835	14	0.6051934551302872	-0.5647258000543485	0.5087644072086654
Si	4.9919916695635935	-1.8987957353001428	4.773605591155241	14	-1.0537978545054678	-0.9451385727969659	1.6640491880215504
Si	-1.733199480740564	0.9681675827963018	1.6665979797087158	14	-2.0101960688309584	-0.48446437660688196	0.9395361343043632
Si	-3.0537640385877314	1.2501670589997786	5.219353124731138	14	1.053365908811683	0.08339585794325904	0.32578244112117494
Si	-4.733509672538029	-5.282966522526264	2.2692320002615953	14	0.12154231913616804	-0.2750956708397757	-0.31283872560795345
Si	5.674950331939197	-2.0198139163874242	0.9593250106254066	14	-0.7316026195269636	-0.8168640714905222	2.0925552571091335
Si	0.48833353822371245	2.8710138580395577	-4.484810946850476	14	0.9258496264641509	1.1897239652446723	0.4800461892247396
Si	1.3235747951819403	-2.336320451450539	3.028154887144113	14	0.34021045573571795	1.348065486385992	-0.758035639102342
Si	-0.14629532106015308	-4.583174878583787	-0.16267455361700509	14	0.688583913752374	0.5887877463034864	-0.6418563885534707
Si	2.607496353707664	3.923999304562693	-5.020566790145884	14	1.6056750699434406	0.32645967026250194	-1.1315375378549333
Si	2.8009594377119407	-3.1177094478536036	4.604080534191823	14	1.7770860336481367	-0.6492987100131714	-0.6682027618795602
Si	0.5363977321388531	1.0771337474954672	1.6988694946653242	14	1.799021675797512	0.5932421862706428	-0.690355662428488
Si	-2.7252829564796746	3.310851587436159	4.158897420116196	14	1.2452174169220886	0.4285929724474042	0.35020665610992163
Si	-2.7921722007861702	0.35861665660285963	-0.3586277236518845	14	1.5525748030980184	1.36848803305446	-0.5141999809659905
Si	4.227623794560825	1.1835544909189055	-1.2521591278242605	14	-0.8002598733330059	-1.0287234069812559	1.70113018316979
Si	-2.2750089998525933	-3.554514805817382	-0.4465000929095905	14	0.24028547591029092	0.7055305831385339	1.6239831395966189
Si	-5.380268017553184	-0.5423075363181498	-0.7085346126721477	14	-1.8952895154155605	-1.5013951519267466	-0.6659003370653676
Si	-3.7331369770792677	4.42627732455778	0.2196587890462152	14	-0.45677948585112355	0.2032083374200315	0.35432145306428664
Si	0.17967354091925147	-5.494889444304073	3.559240435751014	14	1.0195808135733413	-2.094312350484923	-0.7539573518435231
Si	-4.820131465255921	4.211941786092541	3.9906008055945414	14	-0.42827724071408996	-0.00517280679360592	1.028567083777791
Si	-4.754525998636314	-5.373472849451896	-5.215468590523399	14	0.013521185768126734	0.049896155395453695	0.17398284035644027
Si	0.41214797273630094	-0.4786830714739997	-0.10720650390420629	14	0.7418016801109271	-1.238089027421978	-0.4841661283897448
Si	-3.1386040364126147	-0.2386941133690432	3.4063602205210453	14	0.3706181470255132	-0.20445763749509144	0.0740172370669549
Si	2.80933719382379	-4.250388714405044	-2.8726517812952435	14	-0.09200314722351878	-1.024506537145681	0.5355730652713174
Si	3.9733030079686222	3.929566030222218	-2.200793369091614	14	0.25016443388189585	-0.18469740755709338	0.7687576625084234
H	-2.6007698013103298	-0.47031970252588273	-2.828186591723	1	-0.7348643237361034	0.5803115833945541	0.17289474858495363
H	3.2067781651109013	2.390990566928643	-1.6324860144992663	1	-0.5267829704027953	1.2851718793761255	-0.6869589751900405
H	0.835496905790703	-0.34095032624441174	-3.742247371836565	1	-1.6058167378465809	-0.1988053195592779	0.4833449173504895
H	5.4860690062312285	-4.002200179677539	-3.0040630281218084	1	-0.24833046445703424	-0.46905985619174684	-0.6575445018854182
H	-1.47022426181089	-0.6843641776017662	1.5566767286787015	1	0.18080398277079313	0.506340626223362	0.3329277999163985
H	-0.982408661481543	1.400326993579427	3.102443560428657	1	0.07390205154861228	-0.37602980950336085	0.008039075004506999
H	-4.323451158657629	0.41936147529073065	-0.46367836640604027	1	0.5069026698463464	1.8052982581050574	0.30914636125768885
H	6.220105419971453	-0.18700214078354027	-4.777088391483377	1	0.6965206587651391	0.08971692037284312	0.012189867433354058
