72
config_type=liquid dft_energy=-6921.561645853406 dft_virial="-36.06191280758745 -18.58480015934518 -15.945686918991154 -18.58480015934518 -35.08791172023834 -25.750153746792137 -15.945686918991154 -25.750153746792137 -34.939901751082346" pbc="T T T" Lattice="10.914011036500002 0.0 0.0 0.0 10.914011036500002 0.0 0.0 0.0 10.914011036500002" Properties=species:S:1:pos:R:3:Z:I:1:dft_force:R:3
Si	-1.0209620764204292	0.7168213308662836	-5.33570719959034	14	1.2140134543146435	2.2300965362104552	0.6241697550561721
Si	4.057229032763693	1.0601870320856102	-0.005467919529286501	14	0.2845555386441965	-0.9654323070888946	3.25168126927032
Si	4.318826963297561	3.3758891517770713	3.4463609210397514	14	1.1603323747773997	1.3245560706701538	0.6942300610354192
Si	-1.7024656675725987	3.5673318193683174	1.8764459175054453	14	1.127139405094288	-0.03011818483074661	-0.7605944031169534
Si	2.4298954171663603	-0.7997896427657566	2.677152337198268	14	1.4853234296810331	-1.136431893942367	-0.05064743237000096
Si	4.951948743524927	-3.3407132942064313	-5.616481047515339	14	-0.4210822595861876	0.6094504342088564	-0.7942149476148056
Si	-4.80590836184552	2.3326952348752914	-1.2493268433481552	14	-0.7787086114289925	-0.1954225162895591	-0.29159805322661414
Si	3.8394072004972264	-3.8513907846153033	-1.0921759984335915	14	-1.4185245708003937	2.962083021761717	1.8157523723367799
Si	4.607982771698593	-0.35704095704806105	-4.599480757101159	14	0.5424062918806751	0.19359317485427371	0.6732223307960853
Si	-2.7730646661870297	4.943544955026822	-1.6266678609241063	14	-0.8074386564973913	0.01598944687546889	0.2680045623668073
Si	3.8817863053519552	3.401253313425897	-3.211163983203176	14	1.0886394169198585	-2.7034131143702393	1.3316471791431221
Si	3.0100842438667	-1.2829092553074657	4.86051115906113	14	0.19690141606970826	-1.257330665416902	-0.05507821816821215
Si	-1.1549752179376127	-2.282392558008063	-3.008872788641649	14	-0.5334385336345305	-0.27389702153952267	0.28667078699108234
Si	4.631698917680907	-1.7902688863612415	0.46507875229837453	14	-0.14656148789599702	0.6515011188304102	-0.4666165348060101
Si	2.451341448853083	2.7821014673252518	2.3356201898330733	14	-1.5130965093492725	-2.5741739343476757	0.49099421278846217
Si	-2.9725946159563232	1.3051847518329622	-3.2852482901189384	14	-0.8385595724029955	-0.11946640870068048	0.4731409716664179
Si	1.6109516850315464	-1.4017628354949507	-4.172295451121513	14	-0.32217363769381513	-0.8143266476500679	-0.26692418391128114
Si	-0.3874364777847136	-2.7054741958379855	-5.579831798454772	14	1.0281577638108232	-0.7091123899600323	0.5557421009552191
Si	-5.005525623703106	4.395661600994521	2.1221421339591333	14	-2.1880990734690284	-0.025153123347008657	-2.0862357373427414
Si	3.959756000196712	5.1498852476828905	-1.9671959192739428	14	0.3057476171349851	-1.4500074983350748	0.553118030865476
Si	-2.0333784821992786	-1.22105955476362	5.472470671888721	14	-1.3236654397872545	-1.002783525406282	-0.6693031949565835
Si	4.184486401449283	0.9102176064330636	-2.1485758686895364	14	0.14792417371567548	-0.41232327509203914	-3.5048245857761393
Si	2.1144259281563276	2.3209845010331267	5.522271304248271	14	-2.38141379761713	-2.17458277280101	-1.447576518254875
Si	-4.536910731828905	4.225861417288654	-3.1474698147941624	14	-0.473300380196267	-0.18482673415469683	0.25176391850156
Si	2.0053949579016925	-5.428541777466809	-4.391437878723396	14	0.4316129927564501	0.6660705442375613	-0.8538203680307346
Si	-4.4778877601435125	1.1398811406741332	3.691238586665702	14	0.7652409046515248	-1.9397855783071072	1.1228294612461238
Si	3.800564235218322	0.9890713361717761	3.7915383480911373	14	-0.36767114610755947	-1.8372720096453552	-0.44217586474321446
Si	-4.4807472310350756	-4.488168758539896	-4.273861237827181	14	0.40116416378153247	-1.0758242566726444	-0.5771948895254706
Si	-3.7734429177926203	-2.416078279194151	0.46529703251910454	14	0.21496651627013266	0.3777005137403931	-0.07089540098723111
Si	-3.2343671706667756	4.471895968084475	3.298115909130972	14	2.3650931923764262	0.7279097409556348	2.420427235523993
Si	0.8297813450940587	-1.3035803922105968	-1.6388042411966943	14	-1.3390439920386563	0.1992799456013772	-0.02876244099543253
Si	-3.5814872916826577	-1.4648021632417747	-2.983115722595509	14	2.966899987579014	2.33081624469034	-1.2813861839027394
Si	-4.372141907210864	-0.44244309340867355	-1.1096929861471743	14	-0.49292254177857314	0.3915790831480204	0.936826189296927
Si	-2.3916745505165373	0.38225232254237607	-0.0800760989748005	14	-0.4602893017236577	-0.21273299707852003	1.1165029994953672
Si	3.5604123363711766	-3.6394625183085463	1.7717587236433374	14	-1.2234319273234098	-0.07204417084427328	-0.5390584556433102
Si	-4.918082567278667	-4.701264824027558	-0.8645970403004936	14	1.3819907068642818	-0.20493971974261918	0.08728131230306684
Si	-0.31710659066550756	-0.5831356096801951	0.3943232187487451	14	0.2721021329155273	-0.8473383544081093	0.2683197798790575
Si	-4.988019550000559	-2.97254004590114	-2.6099984272906833	14	-2.5241595081074952	-1.9875749700032315	0.5495362240439777
Si	3.9000672738380935	3.3426123321267824	-0.0024229104501030004	14	-0.7426696852670089	1.5414678852255106	-0.6576900264465387
Si	-3.871341596790025	0.13761476515922852	-5.008461492671923	14	-20.342571923263936	-18.406920682311625	-18.620786251283672
Si	3.246612691049729	-2.0721996194561094	-2.472143553888652	14	0.6549134898113108	0.671394017802928	-0.3150799581155266
Si	0.28731134053586255	-4.7708416443852455	-1.2040991816128992	14	3.802453937862756	0.5193604464540598	-1.4481681295890412
Si	0.009396963502426501	0.64021588740109	-3.0952135299514008	14	-0.058976528054620656	-0.5265104332388596	-0.31071910638202344
Si	-0.3329100786463595	2.6047160459490173	-1.9150378605305094	14	1.549773069630653	1.0047200819334172	-0.9728270631001725
Si	-2.4019664629239568	2.4324820377820107	-1.1552371542024886	14	-0.20013021013075022	5.372931090194434	12.458985798545553
Si	1.1922902216714062	0.8486189281430577	1.7897450138314892	14	-1.3082503778403067	0.24281364377159245	-1.9321213704582778
Si	-0.7536779461365442	4.840614916941591	-2.8689988231978654	14	0.2841775861621348	-0.5765364294529808	-0.8747879890270741
Si	-0.19708521129711704	-6.183944137347121	-5.246070426947566	14	-0.1363729688438462	1.569675481692855	0.5211643339466757
Si	0.34097553280233306	4.8799380987061	0.7063547942822801	14	-0.15052818918392144	-1.0502435585108953	1.2482490072050751
Si	1.373026244435846	-3.891772625450353	4.308764245121909	14	0.5566345316118426	-0.4418195095458419	1.351990278657198
Si	1.2463145763020813	-4.222761838154288	2.019353978017376	14	-0.1504250878605835	0.10535335448785567	-0.24868630543334272
Si	-5.045590958218097	1.9670649511415048	1.7177671110457717	14	-0.5249744549206031	0.7017232903804588	-1.9749675550658856
Si	0.5509829331666661	1.995976166377193	3.670043577232819	14	-0.37420098228913956	0.31318042550500114	0.9930701466172943
Si	2.9636451269063926	4.721335690323682	1.7298489212631774	14	0.9977752693531655	3.132540105392638	-0.9016634958280499
Si	-1.5404362597247196	-3.650398357367119	-0.7881771350229206	14	-2.111404287321671	1.5722249897283138	0.4448199894544548
Si	2.367805608379712	0.8120569911707826	-3.7643515465992157	14	0.02252982458886157	-0.39671100936703596	0.9059824385448346
Si	-5.061590898397606	-3.7132521469263224	1.9094608008908578	14	0.7447327401758957	-1.0907150702448143	0.8167897665467697
Si	-3.1897943495937096	-0.9492024538554417	2.7019380562621595	14	-2.20285233290657	3.020620662138188	-0.7405942890525854
Si	-1.3977246514114456	3.0725123869954802	-6.316800393694435	14	-1.2247565607843502	-0.20529581782945971	-0.8308961358857623
Si	-3.605465373929848	-4.1596897683743554	4.299094431343569	14	-0.7451250908477504	-0.4744247245527678	-0.044555969645506135
Si	-0.598873613594828	-2.8346306024439265	1.4927856875393608	14	0.3108435478795186	0.5225252199926301	-1.4575385229283206
Si	3.5908951691961213	3.796296856903051	-5.275931161143429	14	1.0807679779822252	3.6984295877148856	-2.1127502609567688
Si	-2.1654052737078193	-2.7311876058399798	3.1314371325815435	14	1.4045580695908173	-1.9662702770994207	1.7746367987201637
Si	1.1473790662562087	2.8613481014612785	-0.23669215734857554	14	1.465910813182319	-0.11994797672714422	1.1685005192689781
H	-0.9501246877880258	-5.504935489117894	-0.817163656934761	1	-1.4720629539923693	-0.9299960480139537	1.0920438174742666
H	0.3955466793859367	-7.449138861341242	-4.707956204194036	1	0.7752203928411477	-1.368465664438175	0.3517274649067892
H	-1.5775013326057774	-1.3918201714406992	-1.7291886235954692	1	-0.17099058798485198	0.21387765316704996	0.09766060736997262
H	1.9770381744266585	-0.737793694474022	-0.8468584981628702	1	1.1236987519548658	0.32108040371168817	0.09885180046479722
H	-2.928632979501301	0.7737422640260456	1.4042588698189982	1	0.16393933164434585	-0.22744897548891957	-0.4995691061416879
H	-3.286596170481946	0.6848629237492042	-4.457336677361783	1	16.742856838989756	15.661386177923532	13.328213258096744
H	-2.4323805374793714	2.0069807637052963	-2.249469352315357	1	1.433965600911075	-1.526960423456575	-7.146856721183045
H	4.636874341714416	2.0805401066902025	4.471477961461776	1	0.9749094012989604	0.648650020140898	0.8526196618462254
