72
config_type=liquid dft_energy=-6950.145923857697 dft_virial="31.709266413976035 6.165653891399392 -2.677435864743914 6.165653891399393 32.802232563611724 4.842171244749631 -2.677435864743914 4.842171244749631 27.369197194331775" pbc="T T T" Lattice="11.2999927403 0.0 0.0 0.0 11.2999927403 0.0 0.0 0.0 11.2999927403" Properties=species:S:1:pos:R:3:Z:I:1:dft_force:R:3
Si	-0.4969058807619522	-3.141861281505752	-4.775489931978183	14	0.04987584366342453	0.13418084444788794	0.18769763035517417
Si	-0.1431596080268607	4.683010791391569	1.5663032937257235	14	1.2981006824784902	0.2755402149496293	-0.9383500834201788
Si	-1.0917713985895652	-5.2627682189254	-3.611251679945074	14	1.732920614900761	0.29808649461253983	-1.3043754650123114
Si	5.230201639847855	4.134656043683029	0.5511345459226519	14	-1.7139438007538121	0.5987044995232975	-0.1450957007529806
Si	1.3184944529309444	3.076343923597493	0.43212302238181227	14	-0.7094353207882429	0.1222079783035544	2.9719208420481995
Si	3.8320196381123153	-3.6088899814623514	0.4711757972922891	14	0.7453631752003961	-0.16342433924872019	-0.2591288496911242
Si	1.4979157376614278	0.1981566726939008	3.469922670742142	14	2.3327684849599284	1.8600823418246446	-1.3803739958389727
Si	5.049921555669109	2.8044434982803947	4.793253520565935	14	-0.28186770514251375	0.298975582832247	0.21055115710384237
Si	-1.716841797012	2.8811252490160704	-2.787369209249801	14	1.6295223288983458	0.10396187228859154	-1.1275734076723287
Si	2.2830392332574716	-0.542738651316609	-4.201484200749164	14	0.31963055742165664	0.06698346424262581	0.9402488446991082
Si	4.147210335617503	-5.187634567195145	2.163677409941683	14	0.6480262699902302	-0.8083642544126445	0.393325377881465
Si	1.891765684631844	-2.8230545863236682	-4.4551125378051974	14	-1.070778719592386	-0.07254939303968237	-0.16320348130171947
Si	-1.6960950103408092	-1.3458856353334316	-1.0878390011159407	14	1.2191885751030374	-0.2314457587090898	-1.3417498232775802
Si	4.601300543886459	-0.6653887725198252	-4.5993682451278675	14	0.3466796138317425	0.06800882104430087	0.2411817632248945
Si	-5.679523251180404	-1.863289702926288	-2.700879064815545	14	-0.7182341574148536	-0.32297685099582935	0.04580244150471392
Si	-1.7278140899628314	-1.318980352618777	-3.5618255116990016	14	0.32549216333053027	-0.5741848965271733	0.07000091344635159
Si	0.8109891789785907	-5.806636869516039	-2.088848858015416	14	-0.6098612968390161	1.0973680623712294	-0.009778427753587175
Si	0.8752861376708977	3.1663031658030216	-2.386727966642465	14	-2.1110553883297274	-0.7133853098915863	-5.345923171469471
Si	-3.783000269604894	-5.260576020333782	-0.9448601929729248	14	0.17901320791531	0.6343811569456723	-0.6039984053774824
Si	-1.3808252128864391	0.9170848108172673	-4.475023125013606	14	-0.4609909563655261	-0.4219111839414033	0.31661182266527077
Si	-0.5846616243831221	-3.340944553604358	4.030074610871553	14	0.14431511317778362	0.6283462585382207	-0.16245477543249234
Si	-0.6293078957000473	4.395019176412283	-5.520001253665589	14	0.09125007047524743	0.19149952379207713	0.11197060825032078
Si	-2.931319816768483	-2.7523166317693906	3.471312569849199	14	-0.4694781750273349	0.6908395444497398	0.17428983033166595
Si	-5.392164435794576	1.3460438352317958	-4.667371601438993	14	0.5347492831267421	0.9486316764849189	-0.4973759533036017
Si	5.422742216149827	-0.6989723509439968	2.8472704707661314	14	-0.8189045006725917	0.8639248119389165	0.4571543530068012
Si	2.576692144599648	-5.336342471657494	4.305636233836509	14	0.9267631401843995	0.16896121455565907	-0.8059137339320115
Si	-3.725924006273639	-2.55793415665075	-3.721189309315453	14	-0.04644238961889878	-0.236241127241698	-1.0184713816276973
Si	3.867908415055508	1.3037366624121125	2.9376704126885316	14	0.5323805237952897	-0.45248548285594425	1.1264786310270098
Si	2.2643716452504963	0.23271205049373822	-1.9727301326160935	14	-0.5330940055216308	0.4213002893173362	-0.04873015913276654
Si	-3.2570308075148904	5.463761189797116	-3.3094966738081033	14	0.9027117354670744	-0.6700925242898691	2.507814220255718
Si	-4.559083771008698	-3.1948356474722788	5.278158809037689	14	1.3837825101618928	0.9448945749020837	0.24816642793760876
Si	4.692762685126447	-5.6535558678631945	-3.5504577190022597	14	-0.048677194363171486	-1.038798540288788	-1.4143341833496164
Si	-5.24090273297292	2.7092862594143283	-2.3981070593319465	14	1.0652241036587382	-0.9827777549102096	-0.6859431314780499
Si	-3.0225446581609248	2.683657875879328	-0.947809491078143	14	-0.9634124467493863	-1.0968109038483531	-1.4312417719349102
Si	0.8335213645027488	0.7941069898245826	-5.427499513093493	14	0.3847983070871939	1.4051190847716737	-0.11082800904604696
Si	-1.8913249849149723	3.3147059704613815	2.0690060707634497	14	-1.6465317332543175	-1.0608611950409788	0.058078440966292944
Si	4.725193664291108	-4.083783476366199	-1.7464025780206247	14	0.3905347001669763	1.009000972291464	0.23858854639899316
Si	-4.026797612976867	-3.396879517668843	1.3830513114562784	14	1.9393592890450266	-0.876539425971159	0.3097096904333333
Si	1.764109666644675	-2.738688840524589	0.7577662131717776	14	-1.623274800080918	0.07451243195161543	-1.0158951340969091
Si	3.472883268840101	2.5392891686292547	0.9908624634186861	14	1.523401756582958	-0.4426330072691368	-1.1294919664622234
Si	4.81978590352016	-2.0386881902412246	4.768280536609872	14	2.161927021083645	1.4809960023166917	0.015050736323082826
Si	-1.9858833241658027	0.8112377788188773	1.6428042445775546	14	-0.6163636221936706	0.6820805599555915	-0.4499097495462199
Si	-3.230170724771197	1.0755107090362734	5.302442493436593	14	-0.4618815872484254	-0.42872409881873175	0.4583481172069459
Si	-4.72717116302066	-5.492892571081609	2.3186116104039365	14	-0.8141271298772245	0.027937887519261042	0.549402012346266
Si	5.551765533258572	-1.9813972270479037	0.9105647150061144	14	-0.7184380460667413	-0.23148226840463587	0.008837917427477006
Si	1.3095900586515878	3.182857655167561	-4.714006671478211	14	0.2750326787594321	-0.5976318343837317	-0.8751047492025162
Si	1.5957510748069452	-2.156524514537073	2.970994091279676	14	-1.252866455249529	-0.10474940184815287	1.1562887974404028
Si	0.26086033240982553	-4.6484328136062505	0.1293962168691753	14	-0.9570276209078626	0.0448400767833825	-0.4375856704151541
Si	3.385229225153594	4.249113670149528	-5.391531636201119	14	0.040390521916334236	0.28919098442589153	-0.34496674346745987
Si	2.864943659411961	-2.916290826423884	4.73961245502773	14	-1.8442831567428668	-2.395312935867319	-0.5390309448163846
Si	0.41207683526052014	1.0541876227353273	1.2416658022896445	14	-0.036065408546781134	-1.5038222753489663	0.5724851388000234
Si	-2.395067361284806	3.179038257621339	4.4879955166794705	14	-0.3098539294417936	0.4359064815305653	0.2560931456396253
Si	-3.0989213090926127	0.4030481410610204	-0.5674743354251257	14	-0.4253667494916823	-0.22644650152459386	1.0708106012983556
Si	4.265125759862533	1.4815194481952525	-1.3239862494027301	14	-0.9913667893426963	-0.21757875927540313	1.096321108284865
Si	-2.0581580777327613	-3.540954425107668	-0.2967943093239795	14	-0.4464179314109268	-1.0903882827586233	0.723500295331581
Si	-5.44545520155783	-0.3532603730472586	-0.7375618261521213	14	0.6630996320401302	1.1971907122049144	0.6804702766935826
Si	-3.76815207914414	4.14219313884081	0.608391609137752	14	0.7250555569397386	0.9335917388041808	0.9003182935245484
Si	0.23164985117615003	-5.604796399188801	3.6865209315882126	14	-0.15902080716690256	-0.7064551526116593	-0.8607165867204358
Si	-4.343536409487475	4.630804824931382	4.4963462113145525	14	-0.924182264664035	-0.6369936570614747	-0.03219718059261835
Si	-4.600735544249443	-5.151327690520561	-4.868002972543019	14	-1.5164122067701356	-0.7686183086000714	-1.5112795092195237
Si	0.6033292123900976	-0.7856658952475785	-0.41196383533311715	14	0.9247689908980928	0.2804402274687675	0.40888030795782887
Si	-3.610528480409695	-0.213004863154655	3.2351879215478903	14	1.498730458372945	-0.41972265909289336	0.7293616441299225
Si	2.6487747982900216	-4.471373227358489	-2.950123004688342	14	-1.1979759277696878	0.3062816357099798	0.18340928379169918
Si	4.295161140566251	4.089614272620194	-1.8348137212207318	14	-0.16376372515097973	-0.15051944742583295	0.8409902953726637
H	0.26824939766270767	-0.3754716387775923	3.746080933323786	1	-3.0249419188497613	-1.1223558636461524	0.48353569336524443
H	-1.8495263117686025	4.55319308479318	3.9559477884944596	1	0.41518645797655607	0.9164620067192264	-0.41025327819878793
H	1.1446813545974717	3.183010205069555	-1.0574849606169467	1	1.0159771523566217	-0.22397412664873947	3.567462624917183
H	0.4586158553614456	-4.99186558296727	4.970422716743276	1	0.3922231450307175	0.8471696898991075	2.492079569917476
H	-5.281122797133469	0.706891385856399	0.6408304982973313	1	-0.3529543963655639	-0.20113859763731226	-0.7248763508989243
H	3.9486649431733363	-3.526923224122037	-3.559313523312833	1	-0.008922506792509879	0.5159236499726179	0.13993754925969948
H	1.207140934470206	-3.637575013033603	-2.526704366714383	1	0.6079123990063438	0.24643890227300128	0.25381411788384606
H	6.704042742976075	-0.8909321076191171	1.2049668158669724	1	0.6820587055603702	0.08143359036292205	-0.07083703689646374
