72
config_type=liquid dft_energy=-6932.814839075873 dft_virial="0.3566601150111896 -0.3911039267412422 -0.893316923579428 -0.39110392674124217 -1.079980161342294 -0.8366512978299868 -0.8933169235794279 -0.8366512978299868 -20.3662925487698" pbc="T T T" Lattice="10.6564076729 0.0 0.0 0.0 10.6564076729 0.0 0.0 0.0 10.6564076729" Properties=species:S:1:pos:R:3:Z:I:1:dft_force:R:3
Si	32.539021136969964	28.113415030414597	-8.392080888523843	14	0.07792814536943214	0.28563154622067854	-1.458169986394949
Si	27.726821872857126	2.15718726163282	10.653903417096869	14	0.04554070298312285	0.5060205236110035	-0.39083731926315773
Si	4.984460094145265	-8.080658030691014	8.428312674611703	14	1.7536331822493418	-0.06650086777403402	-0.45570656360102574
Si	30.874426320016944	6.150239124337506	43.02552304593324	14	-1.4698788000229035	1.5911730074956774	2.386076754225751
Si	21.672170725345534	8.843369097063487	-6.969898033313956	14	-0.1682983836041249	0.9287848002976321	-0.3769911457825642
Si	24.27684185797877	15.487319588886448	2.386076242039039	14	-0.5391800689249533	-0.4958327758904487	-0.010761875538543814
Si	0.9593111315298039	-5.814967226132726	0.5102074865631062	14	0.8041820944988918	-0.7170455354253492	0.8369125223349088
Si	17.054323024371048	5.425976376848858	7.631405196016896	14	-0.42899149377202717	1.1825230705745335	0.05480876633066063
Si	24.936132487885747	10.891306867233736	0.073955469249926	14	-0.5207727546064171	-0.11753448016312122	0.9661203348725663
Si	27.470215576093697	3.9769500307109342	5.808786509682444	14	0.5054821341569645	-0.6761767879194674	-0.7155931180299975
Si	20.451788262237354	-11.391561269030351	5.283404298593129	14	-1.097954531494755	1.2903089478057814	-0.54113719429465
Si	10.825162544808045	14.54934258551779	17.965765572634186	14	0.31181182614308633	-0.1768565647727698	0.15761081300933338
Si	8.515215679184204	19.39947866094615	-1.2021813188028676	14	0.08698460674912176	1.206907947651882	0.09692527124841027
Si	28.52624426366274	26.10272140506113	14.23795169690798	14	-0.42592416512509046	-0.8612169238157366	0.8781491950121035
Si	6.9983612982082715	-4.449348582850591	-11.339952286670497	14	0.5886903014118527	-1.0438952423649177	0.2788739101077334
Si	23.438139948490853	-12.429644566078233	22.233155994470007	14	-0.743711497142733	1.0762502888241932	0.5543112808445567
Si	13.98194215897423	30.408624084226812	-2.737290126122477	14	-0.19623421423912982	0.5206164314029522	-0.1435142138705575
Si	-0.39862424182017037	26.16119311396233	34.96741397387809	14	-2.7640341213876267	-1.8917257063313029	-3.8140349675563
Si	39.29968060562653	2.2111513100883857	2.7496515590230413	14	-2.1007367713483767	-2.4896611882533444	2.0281452121814443
Si	18.072116521209725	-2.617107160387511	15.107226840009453	14	1.313530913946827	-1.7836132987243964	0.3595212564637541
Si	12.284408385904278	12.28763727742917	-10.590124817174562	14	-1.2107322097050703	-0.2164443876081538	-1.039299905826217
Si	12.674155840132924	1.527702603986944	-16.665864995470823	14	-0.41588194196565614	-0.17842056813901588	-0.16348476022374367
Si	34.098895435721396	20.63858443233562	5.661504299235293	14	-0.2783686879123242	-0.07832023893075474	0.027910376692335457
Si	20.78149751563688	-22.61829988058396	-3.221069721656791	14	0.23975788509859647	0.29743189119803015	1.507513354146571
Si	20.111369319126563	13.17742600530097	-6.6270387728460705	14	0.46163219003237105	0.22864865323130068	-0.47635331065341086
Si	53.97731568311836	-10.478030064863328	-8.986846969971412	14	0.07509478730662897	-0.8023121295995479	0.8752980963225916
Si	12.127993634081452	31.712595409121224	8.242166545381487	14	-0.44338556979634414	0.672107499529269	0.13487272888953977
Si	6.718012525149618	-6.1207421878989186	33.15354419824309	14	-0.5602824158400685	0.09259758677353702	-0.7849348000722631
Si	8.409290986915577	0.623719541094837	10.250430509785529	14	-0.43857785995819926	1.1361549858993871	-1.4768601222987017
Si	20.579686467127498	28.31083563896274	17.936620297648805	14	2.1806176712084615	0.16266612028980854	6.747000478677872
Si	31.632608413128434	26.83797090886054	-1.47870444150695	14	1.2376833070024587	-1.1941557794850117	-3.7033411702079646
Si	29.490073712045852	17.259544123335758	-8.13961993434517	14	0.515978157405405	0.6603637188689607	-0.4456555986835029
Si	24.364394903419317	24.99732158074354	4.713851277699642	14	0.12120421878656859	0.7484965812540606	-0.678044438824023
Si	25.841511540183006	15.616240808913194	9.397150634601081	14	0.5111102837027687	0.26149118125927623	-0.03176934866734571
Si	2.6258986967176536	2.168461740950748	-13.05280997397408	14	-2.1012728468076274	-1.2634838346690804	-1.3589808569121484
Si	7.740047272242111	4.005764957058456	19.58126631943815	14	0.7245907010978557	-1.1060146895628873	0.6685570601926765
Si	5.478256712892105	7.955029640635196	29.942086556307252	14	-2.577455436067781	-1.1255694881858056	-3.810174710028629
Si	0.5031849139066651	26.541754744776938	-16.535110873324342	14	2.9712238153959074	0.15012555409078626	4.411821325369772
Si	10.593982436752151	19.09646370876724	10.528040586072247	14	-0.1771221599523411	-0.03176343512510937	0.5834213352792733
Si	26.006771110374338	-11.159432740691573	25.762249179911976	14	-0.741105681900763	0.3914011626598662	-0.195264907533434
Si	17.55746531264702	9.992758572254807	3.50882469804811	14	0.2911905330333707	1.5201073993362522	-0.9193023067663938
Si	5.90938299811462	-0.32370969587968335	-0.3979848573597963	14	0.27940227225102376	0.46814942779788243	-0.10178748851934229
Si	19.69576941988346	-0.4713648805953857	22.737278672251886	14	0.2540673717578807	-1.1793575257043674	1.205274781552524
Si	26.461149677139122	-0.11410881336141321	-2.7504934152292	14	0.5283765414802231	-0.15378732228774114	0.3824938253887452
Si	29.860959324693468	-7.518884187398745	17.374953018433263	14	-0.530372747650786	1.3459908615031644	0.6014576391001121
Si	5.601348877921773	-4.193360357732188	-5.710278677154157	14	-0.05459793569440848	0.09500799801117583	-0.0501393819587397
Si	45.56812060387185	17.72115839091044	28.36437343111139	14	0.03885608626126986	-0.5803874310014986	-0.6883625415843093
Si	35.09501379935339	27.568286495907394	-16.482244434859084	14	-0.12235401708573879	-0.32988052589095895	-0.04264229595571992
Si	5.161825343453013	-23.95700043808435	-7.919383956969345	14	1.466014428726721	-0.38031995584056	-0.1510223556264539
Si	13.70233933445268	-23.575916643293773	-7.0303838032653365	14	-0.3340966243949378	0.7849674531098291	0.43061900343968085
Si	5.179205944367513	13.133478980057932	-17.328214014379924	14	-0.37253156360476736	-0.06444835439695981	-0.0361116884425438
Si	13.868259601919734	13.875953528259567	0.1065960459520187	14	0.3620483958829277	1.3821938241845735	2.1438706626413095
Si	8.661357654010354	14.098342099985317	22.99917054722108	14	3.615797862272775	1.4000820323389718	-2.3145102947499607
Si	-3.060083370942291	11.539845181798757	-5.090278222337162	14	-0.8300299305034043	-1.5661183574824304	-0.19519523057925797
Si	34.28708759522481	16.3321063071556	-1.872458705020605	14	-0.42251899323908637	-0.013214452903433068	0.8299970203553064
Si	18.446145774120843	7.626908191978932	-3.2063958482912085	14	-1.9597314420492198	0.1268827619966476	0.2713238593351185
Si	3.4486799331422624	7.382812517823485	-10.925077023149155	14	-0.7163695918366823	-1.5278693091872475	-2.362118937742079
Si	-7.3273672287013865	-20.29451034139302	34.65173920938377	14	0.5799932805559198	-0.2520925057614749	0.12106692176247266
Si	15.278208901121133	-9.25177592112738	-15.166337933371029	14	-0.28615965125343695	0.4745998168250699	-0.4122623398959517
Si	31.460933685518018	-7.968424745080031	-1.0185927274141466	14	-0.29977082570776886	-0.032775679289651666	0.41215589613569753
Si	5.9856295950142195	19.504774625162078	-4.390322740750398	14	-0.16892933284968925	-0.12798268085260694	0.17576667322755904
Si	6.775205465130073	8.194415182599222	0.6135426717672176	14	0.7956475674991922	0.8335878260454253	2.387161760670853
Si	15.479156780609008	16.602033113510153	12.052120011450404	14	-0.2658510045506513	0.10523714052738498	-0.01412848084474571
Si	31.282012600690027	-3.4849010628224497	-16.03744597859224	14	0.6062869462229462	1.834773923716299	-6.361315654476291
H	6.287238967021076	8.171986641370069	-0.9232796859061944	1	1.448249890738222	0.727877602139133	1.5206095362052772
H	-1.9621579509664733	12.637770601774573	-5.090278222337162	1	0.9248697782266425	0.19975688563826471	-0.055944166440038016
H	-3.060083370942291	11.539845181798757	-3.537576751590362	1	0.08547922458417505	-0.17198072064364098	0.09965938464585575
H	3.5310305203568992	3.0735935645899937	-12.147678150334833	1	0.1229564270622495	0.8278992555245976	0.27004267755408873
H	30.657976564287306	-4.481782425243829	-15.09005617032611	1	-1.7720448674469225	-2.6898232800900646	-0.653094432797306
H	4.505806230701615	8.439938815382838	-10.925077023149155	1	0.7396995444011739	0.6136559911810227	0.1673835843312162
H	3.4486799331422624	7.382812517823485	-9.430074671747272	1	-0.019886728319749344	-0.3628922326490002	1.451672546140403
H	33.47449175325396	29.048885646698583	-7.4566102722398515	1	0.8895327638170594	-0.380997956313483	0.4044412946225932
