72
config_type=liquid dft_energy=-6923.797392653268 dft_virial="-25.88264654176242 -4.969076625777391 -7.349172420108431 -4.969076625777391 -3.9532985310052178 10.05751612990639 -7.349172420108431 10.05751612990639 -40.23603266354314" pbc="T T T" Lattice="10.914011036500002 0.0 0.0 0.0 10.914011036500002 0.0 0.0 0.0 10.914011036500002" Properties=species:S:1:pos:R:3:Z:I:1:dft_force:R:3
Si	-0.5110703948061855	1.4537462700618005	-5.5478755741398995	14	-2.27395805030899	1.4334423809784251	-1.9754858898984269
Si	4.073316285031495	0.8219450851698517	0.9234781298424111	14	-0.6596990881437025	0.5262985741604794	0.01444189858327176
Si	4.533756582639357	4.048290457724799	3.9687928013349336	14	-0.9651708256778355	-0.03995831911201734	0.8854871295958063
Si	-1.5523434457655412	2.7819595851817778	1.9134880709633264	14	0.5752526765666308	0.46782829674339593	-0.3372408290909468
Si	4.0931252150627415	-1.5621005716321723	2.8299594057203046	14	-1.8552823453024603	1.6741276637659988	5.408431369791846
Si	4.9293130846352256	-3.7709872653094076	-6.173674052961773	14	-1.9078604206573604	0.8220173378836948	-1.0859698382659488
Si	-4.690634577278008	2.8241531518488863	-1.4691568536453383	14	-0.4273876382733188	0.25335234736834744	1.1031759321789119
Si	3.655658910686712	-3.7833855818468716	0.151595613296985	14	-0.5371360401954356	1.2563716431324867	-1.4295774954611784
Si	4.168759311545687	0.432500429354422	-4.934857402241768	14	0.6185799149796382	-0.3604589385740121	-0.09639768043671589
Si	-2.833037156832597	5.224362458995967	-2.1229715987979074	14	-0.15625326940029519	-0.2640787416534732	-0.020840094172460254
Si	4.297959374195774	3.295180040162154	-2.8327097365015024	14	-0.11285866802789994	0.08652257912309115	-0.33430154148895364
Si	3.2370083613376086	-1.9176353951571963	5.470211471604166	14	0.6539603810691319	-0.06652092239553119	-0.2329128314047663
Si	-1.2836732360800207	-1.6993988304713423	-3.280118704931783	14	-4.42894771501781	2.0054919745372155	-2.744660585689779
Si	4.971681275478919	-1.4191706830981683	1.0401925638667422	14	1.8281486995273415	-0.17607443453438074	-5.0831490086554405
Si	2.285164716811334	2.519117457389748	2.145880107963521	14	0.4133368048092415	0.14539472030171377	-0.6264716656493007
Si	-3.7944414750268463	1.551874143290972	-3.135518972709195	14	0.47606791796287445	-0.5851059234850343	-0.87568967566285
Si	1.1930323744218883	-2.025356684087451	-4.127613489938081	14	1.1642193718003995	-0.5398899511038462	-0.021416535985237455
Si	-0.5620388263466406	-3.0337130777607233	-5.3596634538154575	14	2.185107849539568	1.1778606281869772	1.787886989987547
Si	-5.576524853110713	5.768360425099273	0.9526949373871215	14	0.5423245307314943	-1.2322587889980101	1.304102927848376
Si	2.160963271215964	4.5196011103250155	-1.8093902336971892	14	1.9481056751231063	-1.9708342461532151	1.0014079840600025
Si	-1.8037476899913187	-0.4598836830450006	4.533320022197896	14	0.285848033288635	-0.7771145261305007	1.2699375661331842
Si	4.29254602472167	0.167835661719297	-2.1423985384428774	14	0.4243686464064009	1.7347764387208437	0.04906157460853363
Si	1.9623173563406275	1.426810490823718	5.296089339527845	14	1.0461408457515349	-0.3674837125297207	-1.5487752236559034
Si	-4.2500905217896845	3.915870761818945	-3.750076020163474	14	-0.3436559939752484	0.5335884290746952	-0.00011852795525882644
Si	2.183380649884935	-5.391936184450388	-3.765966820232617	14	1.0802280458649942	0.525840917413493	-2.5087642436715125
Si	-3.584652354883243	1.277113915447084	3.8506595458758577	14	-1.4684703485285264	1.7182504021650604	1.6410557931434662
Si	3.914310058240726	1.3360932310883302	3.59332899365726	14	0.24639750747734687	-0.08520823008343145	-0.313091465260924
Si	-4.865367893972373	-4.096835978815151	-4.521423750168111	14	2.699251009077983	-1.2711004770694871	4.24734000472394
Si	-3.576706954848671	-2.7121317425702505	0.8250010082600717	14	-0.012005776292431455	-0.36682370979403867	-1.501419577427288
Si	-2.9382918792686037	4.662716537046641	2.917871764619312	14	-1.5428082024289036	1.1210566841278817	-1.1397164809888565
Si	0.08403788498105001	-2.636705012296999	-2.071904941158124	14	2.981371968094532	-0.5072052889425277	3.831895407773241
Si	-3.9351667333314775	-1.4578826802446339	-3.0744987370041237	14	0.4146838068864671	0.10462855989810592	0.33158182628130095
Si	-4.3567204096162895	-0.6716264111641371	-0.5584481167156321	14	0.7295395646180767	0.5812412950783197	-0.5338306271958532
Si	-2.2930118907465773	0.8693118930682616	0.5354522954617266	14	0.20644638746022598	-0.45548159188551274	-0.6975917812415128
Si	3.798654283286935	-3.7663378966078587	2.8899209823548357	14	2.172431014758578	1.0063432207220269	1.3538170489871628
Si	-4.298526902769671	-4.184475487438247	-0.6219894889701351	14	-2.088877548059194	-2.5803666986217846	-1.8111038139179516
Si	-0.4381648010823656	-0.8217704609932677	0.14946738114486752	14	-0.007989709782360155	-0.28010135578757206	-0.24745243199020364
Si	-5.581839976485488	-3.244942847361144	-2.3368862151133074	14	0.1876585495543079	0.4270320544075423	-0.9476880808324245
Si	3.7612737954869226	4.207176630394167	0.008720294818163502	14	0.15788772105231333	-0.3437871203465759	0.2577527941237809
Si	-4.531333672189254	-0.4042331407698871	-5.336056447943508	14	0.9951452857211858	0.4681350296080896	0.3180426427759332
Si	3.3216683449477387	-1.8623231872242143	-2.2306274036619436	14	-0.6829516504380576	-1.5702766061167057	0.03854703940178806
Si	0.8664524221766986	-4.667202195582642	-1.2510403430808859	14	1.1977273018852295	1.372253416795817	3.3962792040333194
Si	-0.039628774073531506	0.28899209823548355	-3.051644797893693	14	-0.6080671795466167	-0.5185706028997102	2.867215406101021
Si	0.22497050949537453	2.6091253064077633	-2.80577395726342	14	-0.5887409521866597	1.3023162667614052	0.8804451920629959
Si	-2.2519097251831184	3.0932490079648307	-1.0347683003816017	14	0.538549891010985	-0.17538923496656128	-0.2120987053960395
Si	1.6610251676670083	0.3209046665062095	0.05493021754670451	14	0.6616472146447785	0.7409041072436633	-0.07631271989678312
Si	-0.11315646642643203	5.305988347537951	-3.6255580682480453	14	-1.0399501383616823	-0.967663512285719	-1.8243290654637296
Si	-0.13575938328302353	-6.282344860852204	-6.0548750428294715	14	1.3303009483974926	0.6607144176346289	0.011993434986894745
Si	-0.2034917357755425	4.649303217482782	0.5458860900126206	14	0.17166576024192282	-0.6005577522380603	0.2846740665994554
Si	1.4493806656472001	-4.379792628947451	4.818645012725116	14	-0.6521796335243973	0.043792865586486186	0.5012994600221475
Si	0.8625233782035586	-4.642678412783626	2.3610934915922646	14	-0.8363815890862982	-1.352479045778558	-0.16291654594799093
Si	-5.455521212749036	3.0040378817524793	2.129705543607428	14	0.8549521685926638	-0.3915911673430251	-0.3040496591815593
Si	0.41035590096136354	2.4767820085791645	3.5783004004600003	14	-0.022531110141521645	1.1099651928872947	-1.4356532744432202
Si	3.1392079084395323	5.210829085310706	2.246070729278591	14	-1.220656933351374	-4.2902278412377335	-0.7487230956327656
Si	-2.3736009482400933	-3.4011987433707147	-1.2180800297506555	14	2.8169600672923427	0.7693423318582251	-0.7231495965659128
Si	2.2002646249584004	-0.024894859174256503	-3.635577130379552	14	0.8098344124347052	0.5873888078987938	0.8205883175467565
Si	-4.860893149447407	-3.399856320013225	2.644541272221206	14	0.9472859599603535	-0.37120050238052676	0.40507867163145794
Si	-2.768284329353043	-0.23541521805730503	2.5538349264968545	14	0.36892198884581157	-1.0394307750870126	-2.249698900281796
Si	-1.8960583953380357	3.377788189697422	-6.567593453302168	14	-0.9727645852408928	-2.1851587574249067	1.2216419237995224
Si	-3.302088609148258	-4.303099873393965	4.565265332501732	14	-1.8785248802860668	-0.8285620864761319	-0.7008768825090659
Si	-0.623561106559391	-3.222110736272786	1.1695235946492673	14	-0.7415913636957389	0.5624344309930326	-0.5831490552258696
Si	3.074880727390401	3.306672493783588	-5.027888432316893	14	0.943698753817683	1.5131381612554589	0.44632357184567734
Si	-1.5919067357728536	-3.2368446511720608	3.523315612858113	14	0.6239625239673682	2.6357596200811826	-6.527939991406466
Si	1.4388923010411239	2.7419597347330047	-0.3909071332943206	14	-0.7876735414592849	-0.21724425847325188	0.3137892632448122
H	-0.3063421015802076	0.5400012552617398	-4.483308749425342	1	-0.5523238164320823	-2.4035540997499893	0.7570750741547346
H	-0.09949649021314862	5.713510971234239	-2.1574129434257903	1	-2.1896669334932546	-1.1358690789877868	0.2125622756852622
H	-1.661296926541817	-3.6652796114153867	-6.1313364213489825	1	-1.2752432990718419	-2.8078115603421914	4.647325573826716
H	0.8185300911165307	1.4799671815769913	6.293836223072534	1	0.35466032474548215	1.2440154251849191	0.8831818765657615
H	-0.3973682278279285	-3.6744517462904613	-3.0796261393890707	1	-0.369902865525448	-1.2261511283099984	-1.1563744152475635
H	-3.1140172795661862	-1.7683524607988457	1.7525282361970242	1	1.4168299552838843	2.507306169844457	2.3576601268958783
H	3.040145795865636	-3.7632186722536267	1.648559184261118	1	-1.564914308861005	0.7637000412331602	-3.0822238313878723
H	2.370958666168157	-3.99842106709572	3.0453135800914186	1	-2.2970735726897806	0.4689588117526649	1.050062552696357
