72
config_type=liquid dft_energy=-6948.579162561705 dft_virial="21.186083591010934 -3.4598707939926223 -0.4834304788336031 -3.459870793992622 8.970463964952257 -6.103309795274239 -0.4834304788336031 -6.103309795274239 -7.93803131999645" pbc="T T T" Lattice="11.1877542986 0.0 0.0 0.0 11.1877542986 0.0 0.0 0.0 11.1877542986" Properties=species:S:1:pos:R:3:Z:I:1:dft_force:R:3
Si	-0.19291044737075982	-3.3321495525407254	-4.235694965204258	14	-1.8011328103758855	0.8108641401154245	-1.5142254816953495
Si	-0.033753454718876204	4.562892027421114	1.5604455940601307	14	-0.09082763787114709	0.701848760320082	0.09213041693686612
Si	-0.7635530431251515	-5.452575812508682	-3.5421101374625517	14	-1.1409436695581632	0.19312497657547475	0.14489412609588095
Si	4.650659959893631	4.057261471895887	0.2043331445096304	14	-1.9948046610529557	-0.5951162649384989	0.11383208850210799
Si	1.3961981732023843	2.9525378614349287	0.3849594376605274	14	-0.014270920079481912	0.5609796996028927	-0.3008026102727443
Si	4.0116154343576	-3.259932598543262	0.7868459475748366	14	-3.237424233159567	-3.117955253353566	-2.4730811584858374
Si	1.3959632303621134	0.3899715515863002	3.2901395351494824	14	0.8971902867920564	-0.23637431049728164	1.3658104839740577
Si	4.767057355616266	2.782428057324716	4.713915522697915	14	-0.20203385650978783	0.046630851638865635	1.0241671512434214
Si	-1.0101311478662953	2.6601011518238233	-3.1156888823714124	14	-0.812140693906878	-0.5017434899109372	0.30329606821222393
Si	2.5967560869851503	-0.4200330473866384	-3.9894636808463715	14	-2.5041658218064278	0.9275673819285419	-1.1971536882883043
Si	4.165469431471946	-5.382361466530669	1.8074712089732188	14	-0.3307158780094751	0.26113842560935185	0.23804732872910203
Si	1.9090000792330137	-2.68010485650972	-4.224048512979416	14	1.9443801435142114	-0.23296451062170126	-0.5754714776293754
Si	-1.628713270790188	-1.3956387854874541	-1.1483334767169011	14	-0.26176474686533996	-0.8187803162856284	-0.717355096505895
Si	4.7988305778242895	-0.6974557907290226	-4.362799041790653	14	0.8365438258319995	0.24094727841969701	0.36488895304062724
Si	-5.616297408914394	-2.024793336223524	-2.436939016829649	14	0.7442871676239141	-0.7353204378198978	-0.5139531548552564
Si	-1.7180027378473146	-1.6086760028413953	-3.4794363378817943	14	0.43361665513244146	0.43955667975357965	-1.0633240568271487
Si	0.984466439505307	-5.676129518903307	-1.8854386686801623	14	-0.8367456575996313	-1.127383917210234	-0.6358279179093196
Si	1.3616951389455019	3.069304453049417	-2.413791553185846	14	0.65507418389382	-1.364145950389794	2.1926872109128324
Si	-3.776571904298312	-5.1142357470104205	-1.0612479972565987	14	-1.6258837006492723	-0.6154303109624568	0.6808777968868261
Si	-1.1910818858918517	0.5124438978930743	-4.50482758261138	14	-1.2303073200600176	0.344292342541985	0.14931308480961947
Si	-0.4893076220035696	-3.33682603383754	4.4095750425131	14	-1.2184591525237114	0.8385873403404532	0.16218172404749262
Si	-0.6847800651087088	4.506080611092823	-5.536204275890717	14	1.5815637584721558	-0.4006625411335715	0.4167815717171759
Si	-2.939918074586108	-2.4023576682926766	3.877060313408337	14	2.7155705858765593	1.199004627008279	0.08347196266073545
Si	-5.3121806838155505	1.3254915660352322	-4.7486982508122635	14	0.8700275875268199	1.2161785821047402	-0.5588662510297311
Si	5.312057618518266	-0.3821624990858774	2.8462877588611244	14	2.0185848141590053	0.4775987540704907	-0.6730055866175968
Si	2.7148092703439777	-5.09546269529737	3.7793017163471703	14	-0.49869981543294595	-1.331761850440401	0.5211697332678479
Si	-3.723049687733809	-2.6689618532283146	-3.855490323120636	14	0.006300493587022868	0.7798393835487938	0.8449960774614543
Si	3.8354306796632467	1.2067559296641903	3.227756617180489	14	-1.721409776382458	1.0414580916319491	-1.3814728862528038
Si	1.843126581922857	0.4524775348525784	-1.945102962354596	14	0.7910542878447476	0.15217909590998852	0.49453513903536994
Si	-3.1276485917166155	6.360931959520613	-3.1609433485092495	14	0.01634657340443746	-0.5517959685098558	-1.7710367370508922
Si	-4.547878061152393	-3.09781085100225	5.217062396768853	14	-0.7948109298280159	0.12391416379400466	0.5000517026102798
Si	4.037984971239399	-5.648070631122418	-4.13251030730827	14	-0.6749380293762199	-1.1313817288725323	-1.1205514619324726
Si	-5.344994367173345	2.301623128588082	-2.5524637677169926	14	-0.25053981525863744	-0.032751510899642275	0.5212162702741426
Si	-3.1026998996307382	2.835648204523156	-1.5864459350500772	14	-0.4730350421272277	-1.3433179404123385	-0.6538732205987788
Si	0.8769633084500595	0.6423001620369245	-5.525117211380804	14	0.7945731025859022	0.1527100291585991	-0.3527672198982571
Si	-2.345792382558955	3.596169366233387	1.8930015905860156	14	-1.0444526579983258	0.11162762280061303	-8.982245139070859
Si	5.068813464558105	-4.314669322798076	-1.5685902791895114	14	-0.985719099396459	1.047672967411811	0.6931586814485136
Si	-3.418172195342661	-3.195770827640791	1.8881908562376177	14	-1.5406641577024325	-1.8835061397333215	-1.183938464053275
Si	1.6520509262570675	-2.671177028579437	0.5547895479132754	14	-0.37181345388885007	-0.5189588398030527	1.2945643842211585
Si	3.513984123155871	1.928097575820724	0.803504513725452	14	0.5708542866954536	1.5192892736233814	1.05810368458512
Si	4.846837231519582	-1.6343966499738767	4.6925580997418885	14	0.45655811368305876	-0.1444570381914558	0.4502625051961442
Si	-2.0027310847466846	1.3035747553642747	1.5362912325294533	14	-0.10978979671777118	-1.487597829447236	-0.42798670581291326
Si	-3.0387506960599406	1.2725399249399583	5.147597630328846	14	-0.10244517726023619	0.4089641259912657	1.1709399839967345
Si	-4.833042730469408	-5.429327659076191	2.6323219579003996	14	0.6520935014961723	1.2629431312202533	-1.380191704471774
Si	5.615670894673672	-2.1284366920457543	1.3906154838073828	14	3.7001941372961036	2.18968673100422	0.28630903247253753
Si	1.1500675786331842	2.880958609432486	-4.7614299152040696	14	-0.21464821343149837	0.460346894482829	-1.210224159293809
Si	1.0546807854833204	-1.9547356188056904	3.239526134702616	14	1.2054061650343837	-0.8489121279745719	-0.36181185419347406
Si	0.2277155509937044	-4.658155755273693	0.0178220925976698	14	-1.089203517427099	0.3540214050734254	1.4712000910469276
Si	2.835592265751663	4.109564223241843	-5.77575647093234	14	1.8435066829361824	0.9144339188426934	-0.3154450550709876
Si	2.9551334204322037	-2.989088254728455	4.878644016990502	14	-0.722857261891012	0.004646244424039593	-1.469212112413389
Si	0.5273236111102124	1.0987941006827002	1.3103545344692265	14	-2.2230398805487765	-1.2601534819478928	-0.6190314010738561
Si	-2.5393740951876307	3.679909707158408	4.662709171273224	14	-1.832494381739456	-1.4325031562049748	1.348799279844362
Si	-2.8074998147078785	0.48106224708550144	-0.802050105666634	14	-1.2555164935030056	2.110688748711074	1.363816591798283
Si	4.176265614370095	0.6502099043260349	-0.9856970924781531	14	0.7853716308661564	0.07658088618167457	-0.8300309589455324
Si	-2.234250472201913	-3.7373140744645243	-0.1542008174976038	14	1.3713486448336567	0.5967190919950791	0.9022301674406106
Si	-4.923339095413409	-0.8230607082394047	-0.5297177905301128	14	-0.6867838829177383	0.940346289590742	-0.42111594106588157
Si	-4.2983016382592245	4.001143696334109	0.14237536120398359	14	2.435885234929787	0.7969794000550289	0.40764206363564554
Si	0.2486814025492808	-5.5128889959324345	3.7808456264403767	14	0.6610949412220107	0.13588291616982598	-0.6706800218555228
Si	-4.753318793337585	4.576004075459074	4.549231779422524	14	0.1186732227094148	-1.0699904187012286	0.30942352641120074
Si	-5.022071027098554	-5.090126136496938	-4.867019940274257	14	0.8774951058186581	-0.6218192505724927	0.2725991275739119
Si	0.4062609218450618	-0.8463536126890899	-0.3116684592503988	14	2.0711379497923	1.4479804389006703	0.4421139011049989
Si	-3.4982093895948454	0.0251836349261486	3.206052373841205	14	0.7855955741395412	-0.22957502247815	0.08259367308337286
Si	2.643711091776374	-4.496884277059374	-2.790639868979888	14	1.5843994305297473	1.5310996459114814	-0.1543614501057302
Si	4.487710318534522	4.285446908570132	-2.2616380947248858	14	0.24289566203130522	-0.7896082982126964	0.9768639555633372
H	1.2615692130747511	-2.488881522487189	-2.9336462195263127	1	-0.9849099725522084	0.39711493001283127	2.041558154415592
H	0.5672952196682505	4.019812701932183	-3.328962161341054	1	-0.2663618831777647	1.1462188063435108	-0.8510669713433879
H	-0.8008284028972269	-2.713682663486108	-1.3915351172107278	1	0.2797673692064848	-0.5737933171869147	0.4799564576490664
H	-1.568665237143312	-1.2523695227150125	0.41935506947614326	1	0.18968612320977668	-0.5156220593185644	0.5421005874581094
H	-2.1269778088852167	3.6175312642911335	3.1366401898464007	1	1.3642927605035744	0.23202785695357128	6.857736185042925
H	3.648552669410292	-1.0697383839938064	-3.0502830331909374	1	0.593919672522502	-0.5243576467542996	1.3490080535963582
H	4.879012094106926	-2.2623597048771455	3.2633672391129322	1	-0.22566231440194867	-0.9852742981760735	-0.7865232289390507
H	4.528084686247309	-2.492382170807221	5.95755524073373	1	-0.7238728484924704	-1.1706759314803552	1.1513047097772957
