145
config_type=liquid dft_energy=-13870.510915374101 dft_virial="20.012088090502882 9.869442761357224 5.190848787980269 9.869442761357224 30.123022407315954 -2.2636784188184635 5.19084878798027 -2.2636784188184635 11.91602271112952" pbc="T T T" Lattice="13.849990867899999 0.0 0.0 0.0 13.849990867899999 0.0 0.0 0.0 13.849990867899999" Properties=species:S:1:pos:R:3:Z:I:1:dft_force:R:3
Si	5.103224420148992	-4.41769834715598	-1.4280614783964745	14	-0.20436302081930996	1.7632768840841535	0.2287828649290124
Si	-0.06016574532924439	-3.557907534065789	0.60917522833554	14	-0.3422742819762008	0.9272681052692766	1.3551100578526656
Si	4.175082517126628	0.30971765078524016	-3.158110927674814	14	-1.4974649603343684	1.0464028413836581	0.4999380597551292
Si	-3.278810828090389	2.6423441927496523	5.993891017880992	14	0.6427279932570009	0.19197055028672827	-0.30458599175134216
Si	2.2647740517034833	5.1990705119521206	-2.885642827328791	14	-2.0987187107825926	0.39699614494704044	1.0606794178948442
Si	-4.937710104282153	-4.445960638521017	0.8821239233646793	14	-0.6619086960558376	-2.5838975975579435	-0.47714161154456824
Si	4.241475218350081	-6.114743268196114	6.154959486679235	14	-0.7636846146012393	-0.04719546636717016	-1.7693377506553385
Si	-1.073472627197412	5.163147790638048	-5.439117168675477	14	-0.7337939725913257	1.1713531606216823	0.3687165575307317
Si	5.171495180134131	4.614707542256423	4.5797210803250215	14	-0.07745069111148066	0.22734047484440936	-0.10188801873736009
Si	2.680175442805321	6.141142735789418	1.6877848171458563	14	-1.2298072400752489	0.19281824371078107	-2.935624805354201
Si	3.6011915255261506	-5.557203575814278	-0.04618140954992576	14	-1.4651019434486006	-0.24255293369212952	0.26574456079039716
Si	-6.663107341627965	-4.874994575634128	4.845469165101939	14	-0.722875773849317	0.8204623333860694	0.15003813650990122
Si	-3.2646159724498784	-0.7935573867617192	6.42123941110548	14	0.22882143150881462	0.30168835605553534	-1.0705126101917506
Si	0.6388557587654498	-2.892162018030312	-3.226022972896475	14	-0.5565414575992532	-1.0147419933608226	-0.06135120092830944
Si	1.7515972650706186	4.287667707892701	5.413484990576253	14	-0.08248440110726657	0.6965931639351672	0.5315433719030495
Si	1.1132401059764132	-3.4923679922798	3.5074201623550336	14	-0.20141833389614436	0.217298508795507	0.6185081811412061
Si	6.631827137252813	6.552745074396191	-4.393275273259524	14	0.5377682749936601	0.2860583497038231	-0.3895733638877729
Si	-4.8525118854582665	-6.5129914456080575	4.309435738539779	14	-1.2504303329586886	1.3189610883829794	-0.18763155294844636
Si	-0.47433310224475234	-3.1841724554909416	-5.996379861239953	14	1.8183545880313012	0.9873790049911465	2.377275603604352
Si	4.740486234323257	1.607587830024368	1.3319494667686824	14	0.7032507840511587	0.7207592399497711	0.62746565496607
Si	-4.964264691773177	-1.2968092699386466	-3.9354610551229166	14	-0.7397807913292906	-0.769463173808272	0.2720188291031545
Si	6.765842418888787	-5.320479531900132	1.1291412804918493	14	-0.7121509222273832	0.22749911204266246	0.8304675326288935
Si	5.1239550864800645	2.4186696102312406	3.623717150673703	14	-0.6581682520360862	-0.07449006333533013	0.721833704863061
Si	-4.995042141479825	-0.14103999700417286	1.679213057797713	14	-0.6097808212424954	0.7923601522368507	-1.181366073180467
Si	-4.4380993837043965	6.832629844851975	-5.349313827888013	14	-0.8141968068314004	1.0514797459488223	0.9842558833587628
Si	6.454716224032281	-2.8078155736448007	1.8378647031895075	14	0.3772148319454171	-0.598956724955204	0.11611471580533546
Si	-6.31133696357052	-2.27282643639408	4.358885745934529	14	-0.10848598920992408	-0.9010276614823773	-0.10325378988342275
Si	-4.271758223382744	-1.6822503607950434	3.229064430891066	14	0.21302353197969678	-1.2205173223324899	0.25446435041931154
Si	-6.746129726886505	6.463673013126552	2.6929021994138345	14	-0.5212764341386341	0.057039200195889095	0.5516977522866262
Si	-1.3068255833343119	-3.649897788411294	3.9485880764675123	14	-0.5268089385665288	-0.4666882686444422	0.2596448705288778
Si	-3.406212739086941	1.756653896736489	1.3488229106430452	14	0.9455080406314711	-1.2943599813482067	-0.7912116394903407
Si	4.90092452853701	4.699891911089442	-6.783305872374122	14	-0.41178128609055187	0.04857203615557744	-0.15428868782517002
Si	6.9197961473781895	-4.696008373650082	-4.00759180756294	14	-0.892932279271359	-0.5132407015710434	-0.29198114791931623
Si	2.4385041821531606	3.9693395177848867	-5.497156940406498	14	0.2808935133367097	-0.29447537719039185	-0.31453951177723144
Si	-0.5382106451265939	0.9051052132117856	2.589221167776735	14	-0.4107453877570643	0.20305664220614272	0.40345681839550857
Si	1.7143532546277487	-1.7531540040441704	-5.7798338690212505	14	-0.5207496146585359	0.05044740037609345	0.002488058618307296
Si	6.132393696558165	0.012549476725404188	5.550278580380328	14	0.0009538800737749373	0.5081262588682048	0.11312786275491943
Si	6.512916655657371	-2.1648657575788	-0.44626332575277944	14	-0.3424588873381874	-0.2131263761925027	-0.3698938666568275
Si	2.3644524359797594	-6.792982860993524	-5.926847367086749	14	-1.7457146920843498	-0.046324632995235995	-0.41260918200363955
Si	5.5470432225135875	-1.2625236175451602	-3.8840540440185323	14	1.444138693331305	-1.538611644325358	-0.6843626730377549
Si	3.5516251782081096	2.672243553035275	5.897231931613917	14	0.5279371395810097	0.19843225217732438	-0.3481436012010348
Si	-3.0009827812784886	0.204313680284174	3.6029698643535886	14	0.8745738159539058	1.1104493320190787	-0.09005810604882677
Si	-5.310665428371138	2.3114319009392648	0.061887299194124355	14	9.240991922511409	-3.9057763762582276	-27.55415339266586
Si	0.8410739354313104	4.311831786959925	2.792926833461808	14	0.8436267067679435	0.9384678400438417	0.5026870855634316
Si	1.9427257540485519	-4.257714332642693	1.4122295538353782	14	1.5548160356055913	-1.205861764897114	-0.3054640242181727
Si	4.942589456064915	5.320827166670916	1.4085676162499055	14	0.5023011626548772	-0.23374921196541043	-0.11872464481581776
Si	-6.184919786924676	0.8991691071258037	-6.216661195995729	14	0.07729899589759191	-0.8409339881661524	0.3265799979914849
Si	3.640882829355378	0.48081766796910314	-0.3964546035945507	14	-0.683202847427836	0.4454064585779805	-0.4393949572289423
Si	-2.287317681839164	6.3752103514551015	-3.405204459751758	14	-0.5295283966636494	-0.2806662276264085	0.13925286391294406
Si	4.326705292152964	-1.6714168979381718	1.9935095155638807	14	-0.46483578726127556	-0.31982493298385983	-0.05383688851964465
Si	5.9476431283749	3.186423079006975	-3.3161531734684213	14	1.4056500180202842	0.8226768263983129	1.0813117667574363
Si	-5.655127166247592	4.270116999464898	-1.2947996362637144	14	-1.0567980773035488	-0.1830693836683756	0.4720739629585564
Si	-5.430664519248797	4.00130945170526	2.0594645570759074	14	1.3307465209494744	4.311412206412561	0.30037400701587563
Si	-1.63272833344778	2.0045188733047743	-0.6854152730660691	14	0.0909772762007797	-0.13954571280890893	0.24473065989829487
Si	-0.2843444675152474	6.319831162969803	0.040624793213724274	14	-1.4539556876646944	0.8151198336413337	0.530285072959369
Si	-1.953217122130986	5.9019894034770415	1.980527919123398	14	0.504605130132262	-0.5959950687369254	0.8843905531767631
Si	3.172014933507099	1.5037350585005067	-5.227065498493407	14	0.2147551714128165	-0.1390291777500912	-0.03197040910338129
Si	-3.749319947856514	4.6862288950982585	-5.716755470612486	14	1.4611470692451487	-1.0548183262070348	-0.7997973314859111
Si	-6.070873422122041	4.486147772023315	-5.080207120325629	14	-0.746872671133855	-0.48531952623636326	0.2375698744711505
Si	4.988871970548176	-5.98556024837395	3.619300388585929	14	0.4350209928583065	-0.17721549107546244	0.27497739999504894
Si	0.062142139026093716	3.443865324260414	-4.34781406323473	14	0.8061988695120158	0.6145587062589266	-1.6335219403343681
Si	-6.834937253330566	2.4364252985238886	2.0138773121342144	14	-3.4222622801776716	-2.813556180958999	1.2100698929746003
Si	1.7741866001761635	2.391886497890896	3.9639948063089645	14	0.3922303441256139	-0.8063780755528303	-0.8046780607151482
Si	2.9662760891626183	-2.8520302844914847	5.972852881752652	14	0.15121724540972115	-0.03669327246596129	-0.11836726117631718
Si	2.392736887330185	-1.3805753997067927	-3.0747242876564487	14	0.19960133376639574	0.4104209142656616	-0.42826104275057303
Si	4.507221918127912	-3.7369366710215246	-3.6537079208990533	14	0.2586886764603148	-0.0565481190797408	-0.2148814126840358
Si	1.6528689901678801	-0.632904417689513	5.622234822935416	14	0.20355132286973923	-0.035882345847986594	-0.2733066957580167
Si	5.491249919301339	-3.8419569967755507	6.7894206433423	14	-0.009662470903648497	-0.36870755866211113	-0.5366606428217402
Si	3.855560457806002	-1.859966518616502	-0.5874362826692842	14	0.9589538930137175	0.17807835402090416	0.8139738920001437
Si	-2.837149854303013	-0.5673898058870857	-0.47455470209863876	14	-0.5992986819627838	0.3570103150080975	0.4329234851381296
Si	-0.29160601772728734	2.986767150651676	1.1562581776121106	14	0.5903370943694075	-1.2219648546277333	-1.693107820349864
Si	-4.20782528053743	-3.06796272211474	6.853228936269802	14	2.802094964773374	-3.3625540155489375	0.40411604979959453
Si	6.552760309386145	2.8886358103553444	-6.8185125491603245	14	-0.2985462082437823	1.0899730492494195	0.7013602503092539
Si	-5.820569462161918	-1.7805368209890955	6.8146913366798705	14	-3.393387738990281	2.715901487131262	-0.5162823191647786
Si	3.767812455663335	0.1362686751501813	6.525401037425696	14	-0.0009893613271929808	0.6838811050112912	0.3525288784350794
Si	-3.7589567715023993	0.21039798127244247	-5.349201642961983	14	-1.4059793766117954	2.291354920236707	-0.3754255997531261
Si	-3.8882159662743363	3.5316714963647264	-2.5459662612971967	14	0.9962776005041792	-0.39892678793193964	-0.30612376984332273
Si	-3.228639236171422	2.4807314193103007	-4.746602390290522	14	-1.7596534253564688	0.7086521621077257	-0.13022956979188438
Si	-1.4564802746583185	-5.6270781647419215	1.5542556701893455	14	0.48010918130508323	0.0692750904144738	0.30127080855154326
Si	0.3934546955725636	2.289825915185341	-2.460212657839507	14	-0.4522013757180679	-1.5534397229277161	1.5320368138006752
Si	-1.7072080443389992	4.296718676924874	-1.4995883712346574	14	0.04497891647067049	0.06197829351589354	-0.492052993959299
Si	1.9803506392402888	2.579294879321711	-0.5489388480528693	14	-0.021417821537897525	0.08852315617269835	-0.0361656816542669
Si	-4.625950964842985	-4.123991285814032	-3.982172919323083	14	-0.09087777442488996	1.0021070675965509	0.26352286868325725
Si	-6.613009154660597	2.218247777380947	4.935074451019992	14	0.21916333148421038	-0.70153585680262	-0.8142659695645124
Si	-6.3835618959484455	0.11924565137444543	-0.7484036465341914	14	0.9779232509552381	-0.24733030448749665	0.40923820581839354
Si	-1.6620335291251696	-1.4534969866253729	-4.341509547391661	14	3.4718694433351414	3.980244328087805	-1.1241947181711225
Si	-1.8181146162118818	-2.4780902260517923	-1.4028821949986323	14	-0.15774373915438503	-0.5719830019309984	-0.42789440313191995
Si	4.8591460310839905	3.3877617812527245	-0.47467519701918953	14	-0.6703354937426229	0.3354767937307933	0.7561476764657571
Si	-2.5848750406423884	-5.441270842255435	5.480991231065485	14	-0.18174577864956337	0.0773941267944374	-0.6932175597603448
Si	5.044708208732114	-1.9739671784492738	4.3518264055891605	14	-0.14276962176984262	0.2316545324610858	-0.5191850970712257
Si	4.988684995671459	-6.70206182594302	-2.8554027572678184	14	-0.7863779614884623	-0.18846741928802652	-0.029758744306989916
Si	-3.3816082303101167	5.7530909216544215	4.518801895492563	14	1.3287703694004087	-0.9787719728214189	-0.8338881311468185
Si	-3.4652067751887614	-6.198067583255574	-1.2866419916425214	14	0.62170149394883	-0.16905300301558837	-0.26684653653061263
Si	1.3319702417549844	-4.34144583743367	-6.859040392437973	14	0.939150211395809	-0.8077885839314635	-0.1419589522623999
Si	-6.195095375215323	6.019455331024962	0.4228526861887681	14	-0.12669352864508474	-0.19101384199710117	-0.6975051349922238
Si	-5.639813231344955	1.7910517340560055	-3.2381901898739254	14	-1.1714758023454532	1.5987863074591677	-0.9692329149731376
Si	-5.30993968884966	-4.547902111305108	-1.5692192003230245	14	0.24561537723895782	-0.6155506386914398	-0.28285783780130275
Si	-4.21807288878059	0.4091744352076301	-2.3038891959126064	14	1.7988836074418197	-1.9183474450371802	0.7492565999866964
Si	5.684300787011736	1.3783510911734078	-1.494163329811701	14	-0.596072973228126	0.30728745211122177	-0.35714581225846925
Si	2.064418698809355	-4.990061684763728	-2.2293236150780062	14	0.7465044888520098	1.426896089722796	1.1081872735584124
Si	5.045945012916618	-1.694934182431866	-6.256477149742769	14	-0.1280423304960344	0.2875009968989582	0.6715390281429843
Si	-2.2209125156239304	-3.2714689479313157	-3.722784750352705	14	-1.701408119654898	-3.736075454701962	2.558116867402287
Si	1.331499342065476	4.968135764220755	-0.7315883726214741	14	1.1889076393055253	-0.8620173089018985	0.5640318587284406
Si	-1.8670549439426933	-2.856525991527205	6.288436003670448	14	-1.997586082788292	0.34868044799188175	-2.5581271518235678
Si	-4.882585755628824	-5.377236794476786	6.546196798713848	14	-0.7100426158648618	-0.0211221444260805	-0.7358174324782824
Si	6.612426070045059	-6.049344996316977	-1.2218697393506133	14	2.0230863053535204	-1.2276796504228265	0.6733627131465654
Si	3.215195050035951	5.901954778499872	3.775971485283614	14	0.9079087106506898	-0.14069242578169497	2.6989201078232803
Si	0.6988248342243699	1.7673904096572848	5.954683078733054	14	-0.027976711209595273	-0.5340275738633765	-3.1902259385765444
Si	-3.657578993346632	3.115678710652829	3.195651327922257	14	0.2738628258387647	0.07480425240545224	2.146712248241137
Si	4.197606757275095	4.6815905331566	-3.7049279571267215	14	1.1483834199125433	0.08335446314760468	-0.9462156088155759
Si	1.2711867868330318	-0.8821585483418489	2.682101976535046	14	-0.2556663421564807	-0.24035849530138306	1.0179252788576978
Si	1.439113771109059	-6.253907976436773	3.5509576086482766	14	0.05386825600455047	0.23260327032422046	-0.7218951542802124
Si	-0.8306061123333516	1.9517670280871167	-5.848179418957076	14	-1.1359906922694298	-0.5609107939803128	-1.336814072394492
Si	-2.4774545114709556	-5.3159672048753706	-4.777115305171592	14	-1.0663821294949327	-0.8062451494077785	-0.4794844027122872
Si	-4.055814705766794	-2.5268685088894496	0.9261599693291672	14	1.5347693845349288	3.5656425394610496	0.1637819799987528
Si	1.60671112560243	-2.4352660542882454	-0.8249276160775125	14	0.8342964226716582	-0.2777637068304934	0.0395860230616599
Si	5.672989499469923	1.4662805281964446	-4.718952268521846	14	0.16285766763615955	-0.9361157928969703	-1.7672351007245213
Si	-1.3318165068563508	-4.813396741249143	-0.76073983340023	14	-1.2472629883147983	-1.363366391256725	-0.8601743406084165
Si	-6.486791417883252	5.393427433801361	6.3456572409411764	14	-0.3340711704522683	-0.14180365750106297	0.13352264148593004
Si	-1.4784075802003778	0.7116346907780906	5.5320783073808215	14	-0.5002635616886599	0.9086653869464092	0.101521893339771
Si	-0.19932768357172997	-5.350833171886221	-5.0369522138460905	14	1.6461848911466295	-0.49576309893627274	-0.5374340313020407
Si	3.5932250107789345	-3.977242322574111	3.3116145314610104	14	0.11041560375269521	0.3452950736168428	0.04359591891896284
Si	1.4449986322288295	-6.617427301747457	-3.619197898653507	14	-0.28296222467730076	-0.13531444478354124	-1.4292874747810658
Si	0.37664080665893296	0.3620955462494644	-4.451060205158577	14	0.3692505761057265	-0.8751188902817771	0.7828622320736918
Si	-3.8686528541734275	6.244182512849334	0.7807516852052587	14	-0.18914387709775746	0.566000296961546	-1.2372269358081323
Si	-1.3119583899499556	3.4276428299568424	3.1714069189079983	14	-0.40925826043989066	0.3884672743790452	0.6362624347084245
Si	-2.1028565784650377	4.967818599429881	6.249552154308819	14	-0.15252825201246464	-1.1153714560439703	0.5214024182993213
Si	5.80499237743279	-5.954662303746752	-6.098066494192076	14	1.5069361410021977	-0.18941847114594929	0.7066526135002467
H	0.08189499600189269	-2.8253441220872153	-0.9859586899004122	1	-0.9516020744612862	0.44615002223656736	-0.6983345735685036
H	-1.193763952882384	-6.006338004673974	-3.8536740890497936	1	-0.25983513232256883	-0.36701679980358176	1.0794541431636298
H	0.5671141910688144	1.643453766375882	-6.490244220606619	1	1.7512579951545892	-0.4051555476805303	1.9871980459632979
H	-1.7670843248591042	2.06466245864863	-4.594709540442262	1	0.05465475712198376	-0.046130000322500794	1.6534894013611703
H	3.952723683740668	-3.1738542122943563	-1.5852450247562717	1	-0.2596952641931528	0.30153100440994224	-0.19507490285027504
H	-1.3107672907353163	6.311706758326693	-1.1997042139656262	1	0.16312814791583913	0.05837591785183408	0.1795788510857426
H	3.7725297625529413	-6.195797569752324	7.745930097660296	1	0.8375666115283545	0.5523808949701895	1.2419837377609382
H	-4.098584862565956	-1.2435796000360466	-5.735120558503322	1	-0.14322213630618869	-1.665604192519176	0.0010556958444528012
H	-2.356081501499201	-0.18790005610662572	-4.8475702087166	1	0.4968339643021144	0.4883025226287991	-0.31099884264085553
H	-3.7207557266905575	-5.704960818389384	7.655960556982419	1	1.1325078730027571	-0.022940687219021236	0.24387525315828168
H	-3.830827144114106	-5.6173333111672665	1.27453571462489	1	-0.3093703045310737	0.22365813780489327	0.05760432914525764
H	-5.307237555631333	5.480895666128497	-3.9977887840266404	1	0.14192244256685382	-0.16017986144522534	0.2839189329669279
H	-2.8436344200273638	0.5931937238730701	-3.291158094949122	1	-0.5599545999117498	0.13019614542272245	0.7976699989440206
H	-5.635724714040751	2.4476839561004047	0.9930221852430412	1	-8.849896721384642	3.054303170274256	24.793085555486087
H	2.4427588993477793	-2.0393986903064936	2.742242791880728	1	0.5466123630739053	0.24664459069861314	-0.16979630956364317
H	0.6618592085979448	4.446201628362118	-3.339923912794998	1	1.003915068857679	1.3340264800063872	0.8333654254352325
H	5.520890284757732	-2.174618921147975	5.915868479325764	1	0.21814337400370762	0.03895070293705131	-0.0004589422996464321
