72
config_type=liquid dft_energy=-6952.531989130202 dft_virial="-2.387731280265729 -3.722547757831031 0.05300715253869429 -3.7225477578310313 -30.998341863025974 -2.5298868257104092 0.05300715253869429 -2.5298868257104092 -21.205270431502207" pbc="T T T" Lattice="10.947666693699999 0.0 0.0 0.0 10.947666693699999 0.0 0.0 0.0 10.947666693699999" Properties=species:S:1:pos:R:3:Z:I:1:dft_force:R:3
Si	-0.1170962429558152	-3.0408129531754176	-4.608912939714231	14	-0.6487497790273198	0.8003938279201855	-0.18739295437473663
Si	-0.1036087175891768	4.631333761102929	1.3262988722750613	14	-0.7009074786623758	-0.16613428425615626	0.5199410020353492
Si	-0.9944203564555456	-4.947327212549886	-3.9179837993414366	14	-0.8172528226149285	-2.573377920140558	0.27682551049917137
Si	4.626472997090926	4.438184077625979	0.32096369212589654	14	0.9917686531042353	0.2582443894609932	0.4911003994381842
Si	1.3277439642786295	2.9370838112526108	0.6574183326233787	14	0.6165140318548992	-0.38969754827473607	0.4002779037776774
Si	3.4614004122139845	-3.348902189269523	0.700212761729052	14	-1.1329971543451813	0.12212287471745749	0.3360213538376007
Si	1.9206258017426467	0.09146775522586348	3.15633273212734	14	0.09631026285583084	1.7038959211626732	1.0395073940255528
Si	4.396013665521847	2.548978079294252	4.704091953949258	14	1.8570584648576185	1.1594517712052488	0.5105911775386307
Si	-1.2199532380124594	1.3886458340956829	-1.8369965758694724	14	-0.20588100140032542	0.43372309889269567	-0.030579184014649163
Si	2.243067428872193	-0.27758903668545715	-3.753024357600765	14	-0.8193521301088293	-0.044201414221857714	-1.4702996899638117
Si	3.928110391033109	-5.160664393410017	2.1146622462217852	14	0.10765166553353603	0.5256421709722456	-1.3893780066701313
Si	2.0557200087429046	-2.5510800312994424	-4.441643540301189	14	1.000216019633582	-0.23175454845803958	0.25672280933252956
Si	-1.1263725831147118	-1.2626381904511956	-1.2251205366918858	14	-0.7354027131901424	0.7804217389038073	-0.5306653394362189
Si	4.338844950047346	-0.4456576157671396	-4.558498934589743	14	1.7979718934952957	-0.629966569110978	1.0370720430663087
Si	-5.5320530383270965	-1.755929104002624	-2.472125459104478	14	0.07922886755089507	1.154920198078488	-3.1036059145618196
Si	-1.5313486694480622	-1.4937215390218153	-3.58506525518602	14	-0.3102691629509975	-1.5600304943053835	1.102606432350499
Si	0.6682893656502227	-5.811514126017176	-2.197185757758896	14	0.3848160477139029	0.9047166833957258	-0.949811042495271
Si	0.7071645300795514	2.8478493800322617	-1.640431220384089	14	0.2324271496097903	-0.13160973912773988	-0.38716115287640995
Si	-3.948483998750085	-4.56011918926041	-1.2758082334837169	14	-0.23219934967842518	0.17283458472046215	1.5345220442031304
Si	-0.9545708496904776	0.6083289951688278	-4.095467371779701	14	-0.11112265771573594	0.31086437383261173	-1.2304140209308039
Si	-0.3030423617483097	-3.0779364909337548	4.040510084977327	14	-2.007904699769642	-1.0149397113599419	-0.4832387307007674
Si	-0.8964934778803992	4.323003676341561	-5.788184648292901	14	1.007302243006442	0.40948246082380757	1.6793097265387575
Si	-2.6461714642009206	-2.479230494788689	3.4481208925145266	14	0.6721200979453378	0.442585184710182	1.4741447779700931
Si	-5.155398565730348	1.4396729085550184	-4.7284833553428225	14	0.552855521012289	-0.17779167577770766	0.5482576133682681
Si	5.530170039655779	-0.5810912004349023	3.024610406468742	14	0.7961399341680004	-0.5074274324421886	-0.949446716871406
Si	2.6833935309595005	-5.623695956220058	3.8967234306222713	14	-1.4727833777030748	0.15218218123637273	0.16331275327782577
Si	-3.563596880799674	-2.7557904508049385	-3.2680865137366295	14	0.34885451182205574	0.6557596405721714	-1.0696579747833335
Si	4.107947711810519	1.2085895599843988	2.985231649371503	14	-1.3925849463359519	-0.5919304083363033	-1.75901424857388
Si	2.0266101630043565	0.8918516672022704	-1.8053578191246793	14	-0.36223942900821465	-0.874836840028157	0.5692704858182424
Si	-3.3778040293408913	5.785382045619314	-3.3390054985784188	14	0.9461004232972331	-0.2969161274708084	-1.282315638475973
Si	-3.936222612053141	-3.277041705092077	5.321846890141362	14	-1.0949759059813635	0.7332411849474939	0.017882808833225933
Si	4.0820455324132245	-5.491360561226613	-3.772587837982407	14	0.14105392318970777	-0.7079062844543508	-0.4405072173904384
Si	-5.129934293000801	2.4497265330491675	-2.5130149942054474	14	-0.6601847699386785	0.004290917668795129	0.26755719004110157
Si	-3.1725024358339353	2.5559955336449134	-1.1484868698359858	14	-0.62580035005021	0.6059143930620566	-0.9147429657021753
Si	0.9846769330981526	0.908393591576451	-5.4892914522215035	14	1.1917204285257674	-0.6242481737684367	-0.5115378585175092
Si	-2.076575313794403	3.206604417584811	1.737865453958019	14	0.00725463077132982	0.6151292345294674	0.3546891211250678
Si	4.516021987818187	-3.4121030690922534	-1.3485116879965784	14	-0.3394743482825595	-2.3202248334345223	0.00781718861537822
Si	-3.6288230789607385	-3.2094836539252536	1.54471577048107	14	-4.116105132751876	1.6808680734732993	-1.3478497706496313
Si	1.145782796162642	-2.644605947863721	0.5442851450106828	14	1.2259130439573527	-0.28844690654624067	0.9447536783305397
Si	3.7657127032987634	2.4688849497631424	0.9223190236108375	14	-0.8957813210766152	-1.3249342802627477	0.23841885344786337
Si	4.953895812566105	-2.002875621612415	4.740602422372748	14	0.8677089647491103	0.017425666307303606	0.4322678532814918
Si	-2.1918104534122893	0.8629717224642898	1.7411497539661287	14	1.3426031731333372	0.2546772379398198	-0.9988767308723168
Si	-2.793231470897392	1.106622992399277	5.416281463041218	14	-0.9765595366934315	0.9231155130667055	0.7348167582876807
Si	-4.760713286089075	-5.4081145036877185	2.0694155397767235	14	0.46937815903038116	1.0268259312549866	0.31231293456998316
Si	5.244162247282866	-2.020753161323227	0.9678941600567106	14	0.9463117681545494	1.8144531928185088	1.4561719804506619
Si	0.9628691810443023	3.12757321172299	-4.43581938162014	14	-1.1150783500374735	-0.15835154845206803	-0.7267272896188988
Si	1.4736763613056507	-2.129901398259416	3.0244024008015615	14	0.9311872411087785	0.3067426348938824	-1.604922507416233
Si	-0.05012936579045229	-4.504023345121891	-0.31810635111884084	14	-0.5722118303044917	-0.3705662106980462	1.0828243480172797
Si	2.954512496628981	3.9965223602020408	-5.255701087978027	14	0.24846261927048982	-0.10990009713600553	0.806237950312882
Si	3.196138448225634	-3.4035857844045547	4.3036482016271	14	-0.9351264315697773	1.0653665428934742	0.8335777987346766
Si	0.4260284493853354	0.9627378090439779	1.5958632692740364	14	-1.301884578178152	0.04469995154343443	-0.05640799383979273
Si	-2.498640707836619	3.037375385833596	4.119902563840039	14	-0.8204759602442661	0.8301530864482394	-0.3916379614598518
Si	-3.1781076411811098	0.368170030909131	-0.40428638333164724	14	2.5857961017263413	-0.08189304688363251	0.8721760031323357
Si	4.170119510964041	1.2298608763702579	-1.0982918180453711	14	0.3651725459574396	1.3566848598612562	0.25757024564605036
Si	-2.0285697953425283	-3.2150122256055726	-0.2617477629796733	14	-1.5345050749080176	-0.3991700144952256	-0.11375264134771541
Si	-5.174327081443755	-0.42285362604416243	-0.7365261721520548	14	-1.4382140953420879	-0.4677210816515457	0.8190220001857224
Si	-3.7347855448890606	4.400633580866589	0.30958906643114226	14	0.09676097761845281	-0.2858935418528016	-0.4803907173376394
Si	0.3174057004504441	-5.549985316371376	3.5367532020667216	14	0.11973431787503992	0.9357512101625732	-0.509136446148491
Si	-4.697840836267156	4.170874899965907	3.8765906715725564	14	0.07729462501854767	-1.471122443666259	1.5672041352591288
Si	-4.950414454557508	-5.377690937945926	-5.184946318136643	14	0.7600110193198117	0.3243711614109457	0.3266537887141731
Si	0.7892610826156078	-0.49714449222761065	-0.15264331671025907	14	0.47267328760868293	0.5468851573483731	-0.9698142418860232
Si	-3.099798981321073	-0.12737610198119947	3.5866636145233	14	-0.7612510634157191	-1.4315626458788646	-0.7678521192146672
Si	2.6009794960893267	-4.125551559853989	-2.7225752300562527	14	-0.31411476517834297	0.04391936396823747	-0.1077761070310312
Si	4.093551530108304	4.091613793103519	-1.8354639025323545	14	0.4135892873516801	-0.7922742773191579	-1.41637127009477
H	1.162157221236409	-3.67817187611593	2.9324485691744977	1	-0.21986061524703454	-0.8895175942956706	0.10369704844061628
H	1.676768715673818	-1.8110998703055252	4.56055381162815	1	0.3047006630486208	-0.12815700179331302	1.0802696977711805
H	-4.085011255320548	-1.545799589483746	-0.49072259094508625	1	0.5332328452089188	-0.716660126737859	0.30040614583237746
H	1.3040225600867204	-5.386292519667166	-0.3566815494807622	1	0.5366621854849323	0.11570308184357975	-0.39529253056191027
H	-0.01480781396989862	-3.307037217066145	-1.4041958998674142	1	0.4794607485433418	0.0745674536054666	-0.5419452926967726
H	-2.5070091042572833	-3.8522496294457844	1.8566126050512441	1	4.127047756994426	-2.9944812627903707	0.9261992967876911
H	-2.239159111862542	0.40956096914467194	-3.1721761953664633	1	-0.95125291835881	0.4088795366262328	0.7792629417360164
H	-0.5437892157094583	2.1054125626322784	-4.458976980977323	1	-0.10856286525899651	1.0367395991484136	0.6572480534420052
