72
config_type=liquid dft_energy=-6932.904380623437 dft_virial="-6.472909507121507 5.522593152890372 -5.115794996539072 5.522593152890372 -11.774733412625636 1.844599904557133 -5.115794996539072 1.844599904557133 -13.83898190849091" pbc="T T T" Lattice="10.6868882681 0.0 0.0 0.0 10.6868882681 0.0 0.0 0.0 10.6868882681" Properties=species:S:1:pos:R:3:Z:I:1:dft_force:R:3
Si	32.5616768131968	28.397338435542807	-8.630100438909743	14	0.19959233489777523	-0.16533389916999416	0.4541932110095866
Si	28.351684048861486	2.343698718523939	10.83419633598749	14	0.9826072906274838	1.0754375624324943	0.4516588724955167
Si	5.327210750770757	-8.32958514081077	8.613813621189157	14	-0.5970710763134074	2.049883650552764	-2.7735140438135444
Si	30.804260785060826	6.2816353682182315	43.100220385247304	14	2.0273607679482666	-0.3763257437257099	-0.46872278428427544
Si	21.68257417270675	9.412359286358127	-6.610278556238843	14	0.32650672148986065	-0.9417786523645963	-0.6213140283770836
Si	24.245332726950203	15.128038425674317	1.8417142027947453	14	0.4160333800690128	0.8086702159457422	0.7289926905164813
Si	0.435383828042394	-6.395140808513721	0.9833219633244172	14	-0.96226187711862	0.14854818097687542	0.2271491846085903
Si	16.892347496743216	5.532869228602073	8.196266209666224	14	1.4284719201735145	-0.4881156032720243	-0.8943898388773511
Si	24.71890080677452	10.461095692771583	-0.1784817209655381	14	0.716922636591046	-0.01855258176912451	0.588208990495921
Si	27.47442945159796	3.795042266661527	5.7726616275617	14	-0.43757230066748937	0.648528921080319	-0.21083012203107845
Si	19.85960477193425	-11.42293701067712	5.465541832513043	14	2.67133831839086	-3.238855053270229	1.4892513072786233
Si	10.737629613596939	14.530769614146745	17.577986187359706	14	-0.03823156477900589	-0.06196235266290863	-0.4102113691820695
Si	7.901447023014148	19.812956504643996	-1.243622500870529	14	0.3199452607128428	-0.45545716638497136	-0.33996465806711174
Si	28.97536016129953	26.045710045923936	14.142899691344324	14	1.067147033327677	0.18132154627173896	1.2095237902046008
Si	7.249268979565077	-4.59980770080253	-10.849767132194113	14	-0.9750436129966721	0.5026184370513835	-2.4187986974142115
Si	23.317988684374097	-12.795838798926855	22.00143885796205	14	1.6030440578693328	-0.483335404260805	0.06889765215347605
Si	14.074364676880998	30.937398039104817	-2.7741665779630065	14	-0.41975068414088296	-0.2769833763658285	-0.4822280291994172
Si	-0.7254473494151642	26.43777991581572	35.20409543259067	14	-1.1463046812612037	-1.0960439431313531	-1.6743310381968226
Si	39.42558728870246	2.043931502603734	3.4089998017529513	14	-0.49854734888746116	2.164647250512362	-0.40299761898533004
Si	18.533800100282036	-2.733054118795626	15.494384955504787	14	-0.2933734014501764	-0.3776866297716643	-0.009051833390113328
Si	12.015963127562257	11.86131316743458	-10.539847372419214	14	-0.27727288282487716	1.7000521187090518	2.4101291873852038
Si	12.386370674934604	1.1649135687759724	-17.13051548868609	14	-0.0849871150258987	0.21345599189454567	0.2678973472749571
Si	33.528145553722425	20.58487044424886	5.973735430326002	14	0.6481103451341991	0.6177875003199685	0.983185532213985
Si	20.97342432790044	-22.388998861004698	-2.7282877666280534	14	-0.17437313414403874	1.3534257267574366	-0.814259027580148
Si	20.60959990370124	13.282434195549984	-6.094828561291843	14	0.2432162788647277	0.08181205706604784	0.2788548839283642
Si	54.362533465254884	-11.136795577298743	-8.695696559099341	14	-0.45153983031919376	0.9457247848099597	0.07958779385358775
Si	12.139995152801827	32.110807684053924	9.01416582948872	14	-0.22646218526704676	-2.12051294213936	-2.2703145369598077
Si	6.2328924708274265	-6.339301817312898	33.339885329991574	14	-1.4192784188802612	-1.4536109024412627	-1.8380934777951423
Si	8.702322429825562	0.6589321568345098	9.974062133729463	14	0.2057329057338849	0.17071213727867993	0.19652757735615872
Si	20.65404667200827	28.842212220367273	18.430169344746268	14	0.03259981568575354	-1.8974906386801391	0.08927083359979743
Si	32.25913100632689	26.611110556636035	-1.7256866568679838	14	-0.058583663161702035	1.3325558077632627	-0.5831883931372678
Si	29.84062406992625	17.966882051435867	-8.269043918771985	14	0.19686104971618193	0.19039549116760554	0.3883950263195491
Si	23.734788013718262	25.350068427888505	4.0532161134422875	14	1.6951482495319334	-1.2243148448903485	0.18587445957265716
Si	25.855098706774104	15.78532480171554	9.534948581681501	14	1.8525921978059894	-1.3419611681348964	1.7874159634928957
Si	2.099321644497296	2.2024928638375334	-12.870454652814727	14	0.09223814624978031	1.6188643260147362	-0.41393792923309214
Si	7.907730913315791	3.584905982645877	19.594666124879783	14	-0.49434539146274314	0.1557850711214962	0.6847401112987526
Si	5.607249970948049	8.431698358212467	30.078995112746217	14	1.038328285125733	-0.2726119831005127	-1.3193444401862136
Si	0.6880753011416185	26.554063947060918	-16.544232798298125	14	0.007458262312685548	0.19547445261702606	2.8425448792226042
Si	10.356887845269341	19.19433529035676	10.847170218344965	14	-0.2941789287469788	-0.535442710231586	-0.7519169226614536
Si	26.202668373917525	-11.122443086354684	25.61230329221114	14	0.548883420403192	-1.2394226597515388	0.34238252551017906
Si	18.029720954452294	10.430766303866715	3.0934694256372985	14	-1.8338131016581598	-2.1422272121206705	-2.043320390002022
Si	5.895079932672787	0.3442032973389648	-0.24173741262442203	14	0.08954105676894498	-3.1167396347582	1.2593764939201437
Si	19.529486793332644	-0.8325085960849901	22.701066685321482	14	0.017702060129219523	-0.09101969943856215	-0.218201738094475
Si	26.89968860053954	0.0445963847427813	-2.639907200650866	14	0.0324602046668695	-0.3463435703663991	-1.391461373311047
Si	29.62765576051955	-7.434280389262424	17.343173878333015	14	0.7387333230218623	-0.7331995330413076	-0.8796916010936605
Si	5.699873231567672	-4.4474874823173005	-6.116512257587818	14	-0.07714318691519095	-1.5651133124127843	1.3230098079306167
Si	46.228935168392795	17.543895013784468	28.317411198185688	14	0.36331003726352434	0.8441959494858242	0.7066698399058915
Si	35.201263407199626	27.760047227451196	-16.67618380774436	14	0.26260472697343235	-0.9250893506209832	-0.1618518512349176
Si	5.827389182382641	-24.118126695895008	-7.559252860669587	14	-0.3462571812276422	1.7173209475918263	-0.9126140904970926
Si	13.049064616439486	-24.01248680536484	-7.458678555178497	14	0.13567748485474615	0.647467568804162	-0.2982237916366357
Si	4.851580101510698	13.43112087202406	-17.57931136150495	14	0.22515683509600756	0.6693934407533207	0.5594084971417503
Si	14.005070893350638	14.051056573568273	-0.0763685035638426	14	-0.3386227982005265	-1.5526161978936728	-1.4088114491219386
Si	9.031243476941144	13.478410352610402	22.58527425093662	14	0.37938895860413435	-0.07123632955268275	0.762239653411316
Si	-2.701207191756688	11.629343570687203	-5.324613836921608	14	-1.4502674370829418	5.4727470551542865	2.0424819525571216
Si	34.65937405067734	16.341876568941654	-1.8960249689732296	14	-3.0494525229772647	1.1405909139082386	-1.2971144064776812
Si	18.325918749690953	7.177164544420207	-3.4248805177193478	14	-0.2212682954098156	0.6812369803000509	0.06914396404314624
Si	4.2453129300613845	7.426104919737329	-11.209274053532996	14	-1.5723450603467648	-0.42557783723846654	1.6688414712277744
Si	-6.962101604912962	-20.39284843584764	34.876702610497425	14	-1.057738844740191	-0.6238951610079804	-0.7110394333974833
Si	14.895235251642028	-9.347008964598695	-15.39851288085166	14	-0.1464658427780875	-0.20130366259886578	-0.11119593421736017
Si	31.832627982435284	-7.658427183797555	-0.9336065591012159	14	-0.3447052620564008	-1.0771530039020971	-0.36139353535788593
Si	6.363432811022268	19.81681447130878	-4.519848402780605	14	-0.9223709209659907	0.7141329873186855	0.8789693776092309
Si	6.522624698663886	8.598584805407116	0.7121849210744522	14	-0.5130193294029786	1.0621259217479597	-0.0695964785794923
Si	15.40577996487397	16.778948925330404	12.272298829560903	14	-1.3371393172174906	0.7329995010474	-0.22196095118306353
Si	31.404532612191737	-3.5373386429645644	-16.881842285575672	14	0.47750028073672895	0.4091911545910348	0.3249740856085204
H	25.606730079979325	14.148296569919713	2.3024900773621453	1	0.586628017834562	-0.04357277897108151	0.04065251754845733
H	1.4168206242763184	-5.413704012279797	1.9647587595583416	1	0.1542444648136635	1.102603861245179	-0.15077090152614345
H	7.305714986019528	-5.266479302120798	33.339885329991574	1	1.428112993870822	0.14394384556955422	1.0333843067056203
H	6.2328924708274265	-6.339301817312898	34.8570857583925	1	-1.1734907775848535	-0.3520619657089405	0.9121368933496732
H	19.096917891660066	11.497963241074489	3.0934694256372985	1	1.692136456759912	0.6082787815144649	-0.4734168512672698
H	18.029720954452294	10.430766303866715	4.6027145344114535	1	-0.8068133636835313	-1.1846907694699504	0.6893272203004288
H	6.897021661426714	7.1473385079527665	1.2813001941485425	1	0.22665347550286574	-0.6072475111705535	-0.026116516510468143
H	5.541657056824932	1.7141501609825698	-0.7789704919282895	1	-1.089897715863539	1.0229559035270996	1.408892181828991
