72
config_type=liquid dft_energy=-6922.951582736197 dft_virial="-103.43080330160244 -8.468797235800315 -1.841531317294946 -8.468797235800315 -137.89016642147726 4.996590369122186 -1.8415313172949461 4.996590369122186 -116.52373666074638" pbc="T T T" Lattice="9.799987616100001 0.0 0.0 0.0 9.799987616100001 0.0 0.0 0.0 9.799987616100001" Properties=species:S:1:pos:R:3:Z:I:1:dft_force:R:3
Si	33.816983866665744	24.764059106528666	-10.405617050787365	14	1.0555212664015632	2.222596364881051	-1.586271452313347
Si	26.586513803556702	7.029609516929459	11.253609979208498	14	-1.4387000342475957	-1.7553707352246979	-3.163076866169505
Si	4.1702279302294984	-6.807806397214269	9.440200670750121	14	-1.7145204996771213	-0.041114802285019944	-1.5610514802280144
Si	27.942773289699243	7.417728226477484	38.42340924568786	14	-0.43791631455932517	-0.5373982929380906	0.8129508491932566
Si	17.56308700614408	7.601693594006914	-6.331017399715771	14	0.24827647124531113	-1.9594648184275205	12.59143860310777
Si	23.27239319149447	15.011278030775419	3.964369390365701	14	0.4426342928217969	0.6469116958339459	-0.885045927922869
Si	0.7471020559133835	-11.312311905028938	-1.924795967702969	14	-0.2675749306678106	-2.6609536240027816	1.7441745999975813
Si	17.44119476017503	7.922917588087439	6.3314975991089595	14	0.06198420705812988	0.7763583640558452	0.42476742484155583
Si	22.716547693896892	8.346041853400173	-0.6869497319257618	14	-0.39508812768895857	-0.7752301630413642	3.9017420549003825
Si	28.976583783309252	5.293306511034558	10.023417533759465	14	-1.7206587565184426	2.9895822787133604	1.0602258749163702
Si	18.736312123580728	-8.254931368533292	3.360748953139638	14	0.8405616921157949	-1.7610927301146875	-0.6170092267395597
Si	11.550588803926793	11.145398515951522	17.918267957314395	14	-2.55812998003942	1.154695483473507	0.859421006749613
Si	7.3276173403474445	19.55269029195232	-1.8837536195667421	14	-0.042827672649302595	0.8595847861585065	0.25922295214584157
Si	24.930061096757782	21.976178229475767	13.717807065289227	14	-3.0908917987536872	0.654413409826542	0.3108438049900506
Si	9.97209499861395	-5.581680946625916	-7.608739785102888	14	0.030241854996645737	0.05828310094977673	0.6723831220195889
Si	22.481387191060957	-11.258666772818405	22.279223246528428	14	0.597968134959607	-0.5810345782105799	-2.001871601135915
Si	12.976820201648291	27.98601083506148	-2.767222503158157	14	1.2543206724186047	5.271017617514405	0.11414782023542216
Si	2.358621819492484	23.04812047490002	30.296985114764485	14	-0.7444054384686409	-0.004767343484618568	1.654921764135025
Si	33.54132981500008	2.813654844483239	6.76234425466318	14	-0.6420973011219686	-0.5508827119001393	0.22077721429366734
Si	16.876862473301912	-4.0199255201613715	14.460734326478152	14	-3.697616861323187	-5.138366323621472	-2.1965387266824146
Si	10.90505381966667	6.355448768842708	-13.527716705499737	14	-0.6894647744350566	-0.5920563924969906	0.8672739337289413
Si	9.823968185796598	2.0997061466751217	-18.665046613636445	14	0.4662887188776912	1.8352038125258279	1.4263319892155555
Si	31.17134980986054	16.61380140572294	3.630748411950809	14	-1.376664147972531	-1.5518204407970868	0.4724801975991398
Si	15.501561611221284	-20.750650578132	-5.506622841474207	14	-1.1009105312813292	-6.063237901621839	-0.15629620685914164
Si	16.324182371704335	10.466425973945265	-5.578015751257495	14	4.825196439648284	2.808302127237276	-0.7145343368591606
Si	50.92386184930514	-7.2650934193567265	-6.597096863480503	14	1.466817899139267	-1.097746271963823	-2.062754603785425
Si	10.639307555480885	31.277591475606684	5.247863968458702	14	-0.5230448403778319	-0.949569872816241	0.5750742418574126
Si	6.248393704124433	-4.885529026328637	31.897313292485997	14	0.1093403675078093	0.4816703564554771	-0.03656703119474203
Si	8.303901906650943	2.7268367541922096	8.208783226849077	14	-0.4902390791559346	-0.6470093978361114	0.9544351754135574
Si	20.722534413661407	29.28769419016996	16.13381761226159	14	0.752081473401943	1.6315828127019125	-1.4759370954887683
Si	27.03129604150102	22.800190588200305	3.539079327789809	14	1.2004781274672556	1.2716998017196135	0.5813323122066529
Si	27.537681001600134	19.02999815246001	-8.505027052496162	14	-0.6597137434440272	1.5512167452679162	0.5232536141298281
Si	26.417895216634086	24.45337989912306	9.829877578329105	14	0.9292473421447266	0.7874030611796053	-0.8316088462805072
Si	24.92889489823147	12.626950843765902	11.552196001895833	14	-0.773195390290999	-0.5908636567389739	0.5424327742654727
Si	1.9093315872447632	3.6049352445700014	-13.020439946527551	14	-1.849761410848506	-1.024978077861396	1.501815784757123
Si	10.380509482514917	3.799994198080856	18.689497582738618	14	1.2872238785321357	-2.897249515787799	-2.258919912401975
Si	5.6653238409293305	7.563385442415578	28.05520854761876	14	-0.7066181606889566	-0.7422966178850555	-0.2944810336220962
Si	-0.6663207579938712	23.19213129291861	-13.440790815344927	14	-0.15478902492047084	0.7193083652176115	-0.2707615586016021
Si	9.831710176013315	17.151252326565093	11.469150906837001	14	0.5041248476584583	-0.3033171512758491	-0.3161006869276254
Si	23.91315558178555	-9.642452815171193	22.53517932308573	14	0.6042272337509755	2.46670353173921	0.19249634132469856
Si	15.4771008421315	11.328256484880331	-0.1425996198018711	14	2.8871898091121877	-3.513500523568447	-0.619825872617782
Si	3.2061443485080443	0.9462868042106162	5.105626948198626	14	0.26887333885448533	0.30034238242043776	-0.23791645946830647
Si	20.99484666954998	0.21125833304026773	22.495969572633715	14	-1.5820610102410726	0.8293910108313476	0.14081532461599805
Si	20.75122877740135	-0.4860303858204795	0.5077569583653733	14	4.277672105517322	-1.7065865828802085	2.070232149388012
Si	26.292514175073702	-4.931265568532976	16.821276943543392	14	-0.29769285838802517	-0.2800509621232971	1.3876134570889136
Si	3.549428114712411	-4.683815881226451	-2.9344200918764396	14	0.02716886991800475	1.3724490779106802	1.1688252498709126
Si	40.7778660704435	14.18827507077534	24.02294484304872	14	1.8226483339159485	2.6029168349426755	0.17678303116061356
Si	28.213625347433016	25.50839756593431	-12.244496527059987	14	2.074420222844001	-0.2365216348321261	-0.4147665964777759
Si	4.847642274204794	-20.38611063878831	-8.984383646750079	14	1.4827060444651223	-0.23498282829801753	-0.3368939869832589
Si	14.706429816001396	-22.56546128481948	-7.1889769155424785	14	-0.40112045499108995	0.5871707781676452	0.058205967790172286
Si	6.569735298056351	12.437928682626566	-13.078887072669971	14	0.17031721550150516	-1.0697610761066714	0.376066319198907
Si	9.187586389969912	9.586886885387907	-0.5460259100062438	14	-3.998028406476737	-1.3317348538345393	-4.404029076475999
Si	7.643578741078125	12.71676773026746	20.72632700886884	14	-0.036036612167195475	-0.32864793800048	-0.5816927811725378
Si	-4.110046206279028	9.788247230935912	-3.489344390638102	14	-1.490096686707888	0.26272454048135124	1.2199012854977824
Si	31.11288308374289	15.726265527270842	-1.2854741755914534	14	0.08283895653091498	1.3692704204033812	-0.11803198904256987
Si	19.297567214342386	5.663285443505182	-5.677848225102706	14	-1.341557504599633	-0.19662347958460025	-0.6040688536632545
Si	3.6204290249910556	7.715745849883085	-14.548581415468872	14	0.32270894182147	-0.19793242930308763	-2.9990624582498104
Si	-6.6266634261182755	-18.678590196521895	30.21915361311742	14	-0.8147375102802277	0.6154447091522496	-0.041828798232425066
Si	9.97968018902881	-11.403226390143498	-14.691857234416254	14	-1.3843473820007295	0.05928428936144239	-1.079094188418809
Si	27.879122370132677	-8.698557207938906	-3.9204948458084212	14	0.6456130305367391	-0.3993237665933705	0.15205645418621747
Si	5.132067314786864	13.89882263654621	-4.444157184074725	14	0.9957392110501403	1.6686180421754537	-1.9307234604957129
Si	5.274588534687807	6.56750090087988	-3.6110112368919833	14	0.9722578203822918	0.7489372687059339	0.3263817657713015
Si	13.666974529524516	20.60956015642301	7.891665427579697	14	2.1905719625659468	-2.893838173249026	0.9212802580891838
Si	32.61914118033746	-3.7113141101427667	-18.498927023555936	14	-1.249047592517513	0.30359123110297687	0.30273042504179126
H	6.570777036739942	8.46883863822619	28.96066174342937	1	0.17597878941647124	0.8136645880301298	0.35313437373797424
H	5.182386331200492	-5.795647996243274	10.452359071721116	1	-0.16680354297099081	0.733222930099721	0.01880814963794723
H	9.734998018225072	0.8272012746948153	-19.41963586008853	1	1.0850118444236618	2.373964791283597	1.045238902005227
H	12.623224888474262	26.744330844128854	-3.207273307081419	1	-1.3688611004364135	-4.075667302497652	-0.9849274560683855
H	11.862746829463664	4.565990630118081	19.175385868738662	1	0.4063637100704679	-0.34886145380642014	0.11496774572201739
H	27.482867710865765	7.925963424238523	12.149963886517561	1	1.6263650115652042	3.82025601398893	-9.54647471579842
H	17.657444226908176	6.661111362587628	5.2386755000698475	1	3.470143460333726	3.390412455913806	2.550330274940219
H	10.439386828113683	32.682131580738705	4.48135107707411	1	-2.455903603841928	-0.998340398302534	-0.3191515605005131
