72
config_type=liquid dft_energy=-6920.371896272081 dft_virial="4.367595918783683 -1.5069941314234394 17.10651064934527 -1.5069941314234394 -13.490172577653063 0.3649926350995849 17.10651064934527 0.3649926350995849 -37.42741962804915" pbc="T T T" Lattice="10.683554453000001 0.0 0.0 0.0 10.683554453000001 0.0 0.0 0.0 10.683554453000001" Properties=species:S:1:pos:R:3:Z:I:1:dft_force:R:3
Si	32.57985186172045	28.24678379600935	-7.35156749019836	14	0.3532575296828093	-0.41697774705310325	0.06498031608769844
Si	29.204030274998154	2.3444846576019445	12.602299465649894	14	-0.7498278995888333	0.38524799340768784	0.0865670592451297
Si	6.346789877448164	-8.971568269679016	8.013403005007257	14	0.22496683041284862	-0.13838280187260596	0.17506013348558233
Si	30.625103270563947	5.1168563546009915	42.2140889634557	14	1.13175788158087	-0.23383251577778322	-1.0202490438460479
Si	21.264525416142295	8.407476594560615	-4.595317276868891	14	-0.5942647148564658	-0.4116257342186829	0.6433257752439354
Si	23.87206055148601	14.812470476668723	0.275186995600374	14	-1.264043821407809	-0.05853481216061922	-0.11473326091681989
Si	0.44417945993792807	-5.812761724560506	1.8484685914580603	14	0.1635690924782445	0.4264301586520956	-1.204284134672671
Si	17.130192830365903	6.599958067320904	8.348214918009825	14	3.758015210619849	2.6372179510187705	-3.7031033429658504
Si	26.902546924069533	9.725517390981679	0.33599778754685	14	-0.06698115024783768	-1.4960192278128492	0.7255715777774923
Si	27.73330011833481	5.294705485580082	6.4412431823671366	14	0.9263985574500027	-1.3949935577998667	0.016009758607498058
Si	18.277553160845837	-12.754529433050694	5.409585746613192	14	-0.17605206591809547	1.4433038554338529	1.7726063968488424
Si	10.648309406859553	12.137415277182054	15.904329741765324	14	-0.5098363010166352	-0.10910922513952798	1.7142592753765942
Si	7.3252432120261695	20.14526283387375	-2.864912645670933	14	0.039364136672531115	-0.38387270917194055	-0.2659386792420683
Si	27.875263189906278	25.727494820447422	14.191948266929577	14	0.2748611860345782	-13.898596775408077	22.896060029758363
Si	8.306730676068826	-4.321519143347406	-9.563533338365293	14	-0.5723175027331497	1.0585176325416636	0.6191208755389974
Si	24.575593979324964	-12.137276390974165	21.87111627087473	14	-0.9402205625405866	-0.012316880036169372	0.041972008798757315
Si	14.463470803352573	33.470294074714644	-4.0673573829105365	14	-0.2023161638739401	-0.3262742935689193	-0.7249663395851293
Si	-1.228021166600085	24.93831133655877	37.187572745309275	14	0.11537192347834467	0.2349979978194064	0.1545645674260219
Si	37.45977902921726	2.3633731818748482	3.3555869345883176	14	0.07595687892047462	0.05834120793001207	-1.6624486749597582
Si	18.07274942198183	-4.111747551662751	15.127218674408557	14	-0.23354429487139464	-2.104510125516226	0.5497388271432054
Si	13.130205941835985	12.187991223962557	-10.607145671552145	14	-10.046468568538996	19.7128899755119	18.607446071330084
Si	11.700180127638577	-0.994884641326719	-16.877003273384254	14	0.3199907692770094	-0.1152541668546819	-0.3960702899212551
Si	32.72176151551965	21.966221272615336	7.488968684018394	14	-0.7118945830269645	-0.7097801060116747	-0.7091332159131255
Si	19.389785964284307	-20.611621352856105	-3.10432041740821	14	0.23003910698843677	-0.25157957025010536	-0.14604958082675554
Si	22.069039800671007	14.195965283403904	-7.012717193612559	14	0.29636976759027694	-0.6362230967970263	0.4701890856483558
Si	54.25083310702713	-12.181143065558182	-8.654950449909908	14	0.24605683602242726	-0.4706868516383365	0.14956248202567382
Si	12.679797969651958	32.02787533735175	9.274222683778053	14	-1.2663860983544637	-3.5995793299132806	-1.032497789591233
Si	6.779655453220365	-6.188074992494396	33.39078706247542	14	0.6370170541198881	-0.3711981883857386	-3.89665383747181
Si	10.841756527340024	1.508282850565634	11.53160432192469	14	-0.3068657908387175	-0.37256755907924943	-0.828079747118072
Si	21.442438648448107	29.66686322101102	19.481354709500973	14	1.3263558443942574	0.10714721466972299	-0.41588991239214856
Si	33.045911241178125	26.65212440769121	-1.478550518522935	14	-0.744476143864945	-0.5018121384229851	0.5486304236396895
Si	29.879038612447598	18.77263975775231	-7.572855953583351	14	0.30235298678079353	-0.12722214789890718	-1.7205343150209478
Si	25.259491034079304	24.921185598770606	2.0314137779112325	14	0.33862536930584664	0.5735164091439349	0.6822152858743672
Si	26.367493149954388	15.29773888703289	9.107281461895475	14	-0.7202288209222245	-1.2482610914000798	-0.5015596558805465
Si	1.0328646774071342	3.0031364731838472	-13.651969374211598	14	-0.20241078054972153	1.193831048883077	0.19759818561146839
Si	7.209818089715957	3.731797621096259	20.49043779469573	14	-0.15909974010023112	-0.5051653739815223	-0.9641930343245833
Si	4.743263138934035	8.396184077503795	30.32318602172217	14	7.039109924752664	-1.2010602257117373	-0.08798399538706331
Si	1.7746772808511893	26.944533293069824	-14.35416735774393	14	-0.4438797362388766	-0.037410353739750594	-1.0473271537462512
Si	10.083843807335299	20.219801993292332	10.672699961675752	14	0.6265194882082554	0.9210303466520655	0.7458375441319633
Si	26.36679871891494	-12.265799551043754	26.259236692682137	14	2.3033730378346755	0.11658008586828227	-0.9939078127305987
Si	19.42277678043517	11.008655015004791	2.8929569761100584	14	0.6932808089512204	0.00893227699272644	-2.0548952490427967
Si	5.939094755967231	1.172017974157459	-0.14882191353029	14	-0.2111887912232391	2.5000283991252457	-0.7500276744722087
Si	18.549396203902422	0.131375669108541	21.912034284429723	14	1.1699187409635716	1.5295251010134228	1.564064815663228
Si	26.265379736492612	-0.7668228044185281	-3.4893984541121426	14	0.36504244802824004	0.7261331071794126	0.07483587700089006
Si	28.74273576082652	-8.049395899959416	16.402824392542303	14	-0.559489744069867	0.2363689111761093	0.7613173979329789
Si	4.647869681223198	-4.187269598091008	-4.968483150357727	14	-1.4948871701403879	1.1532245541198503	-0.8460090929575926
Si	45.72854035276013	19.33173152938671	27.014019131232136	14	-1.6833360774701092	-0.8330923740502326	0.8586327058584556
Si	34.693561059583146	27.024798837675213	-16.728245461180684	14	-0.033516414732386327	0.4307784119695301	-0.22181851194832733
Si	6.009873304218356	-23.93318116651162	-8.091627990712125	14	-0.17961536078128867	-0.12170532721346546	-0.02092365509536507
Si	14.032902191787766	-23.5216185983187	-7.845884871184217	14	-0.2601192394604452	-0.17834060676355926	0.212887777618793
Si	2.82483863291773	13.933171210969013	-16.342472993437305	14	-0.5193882143915174	-0.2553205284909208	-0.3646454693668092
Si	14.678851261125052	12.849324611712161	-1.8629982255141402	14	0.9645604452748323	1.2661418433490494	0.9569391748848494
Si	11.09885626525147	11.760371273426777	24.51366141416092	14	0.5056443709026658	-0.633908587787829	-2.666322349021783
Si	-2.7359194092054113	10.96605968340068	-5.741213960388764	14	-0.7693361612054568	0.2704172875992343	2.266831974803667
Si	34.64127574409016	18.428084443088608	-2.607588553115975	14	-2.0321656495705596	-1.3041240109120011	-1.4672159062428263
Si	19.816252090939162	6.988796715192293	-2.8754252632526853	14	-0.8435930252882496	-0.6368777002115361	-0.3125613033439095
Si	3.1960173652783093	6.260124883725427	-11.30045493777958	14	0.5800169347248653	-0.07402495038291534	0.38703773982104284
Si	-6.602105461765958	-21.032019220581656	34.362979834143964	14	-0.24400277998216102	-0.00836534826963379	-0.5792345473759442
Si	13.41807431657207	-9.995875419969297	-17.01454335341218	14	0.2256057500849054	0.4112107578200111	0.05038337985362176
Si	30.30598549905284	-7.527963657771844	-2.7049691519550705	14	0.02288746533889417	0.11671172646067385	-0.22306266981274694
Si	5.343828468954976	22.351908271923087	-5.597605621431539	14	1.63966533938633	-1.4333876164351056	-0.08739932603726164
Si	6.280391586522769	7.381898101290427	-0.070778548251125	14	0.43747974087596403	0.23210164767625954	1.4176264837120662
Si	15.037615703211246	16.79158825553252	12.94486763918534	14	-0.2867427779400465	0.32780718656079155	-0.008028019251630361
Si	31.459948266184725	-4.846701313147981	-16.006817079632953	14	0.1364683568512237	1.004039510355174	0.6554413377335372
H	10.307572394557353	12.42256468730985	17.473013135786438	1	-0.534000063036451	0.5596563516946126	0.3912638656357703
H	26.985416050895118	16.80301111195367	9.283559042014529	1	-2.7605929540271403	-1.5897339598479903	3.4024945940342453
H	30.797526224236364	19.69112736954107	-6.654368341794589	1	0.30662616382287966	0.0609809617622081	0.19317022802910935
H	6.518992749898844	-5.725311489585474	34.734083781623376	1	-0.1990014948952052	15.158105424141677	-18.108358018993798
H	13.352739039314747	33.77912251493207	-2.9805343453830804	1	-0.9801233457776888	0.21738901170277622	0.45244434517082194
H	35.532320509555504	19.31912920855395	-1.7165437876506349	1	-5.937625265653344	2.28570594473781	1.016725344004785
H	13.535878666458965	32.883956034158764	10.13030338058506	1	11.689785905922063	-16.87468332229598	-15.231213261256894
H	18.565180087251285	-1.0764631947743817	21.16225068100828	1	-0.0264733859289047	-2.287899097575896	-1.1460935935144196
