72
config_type=liquid dft_energy=-6950.540968972666 dft_virial="-1.7746508613572152 -3.416883562208697 -1.6150065370091808 -3.4168835622086964 -11.603296008427646 2.1483918377378837 -1.615006537009181 2.1483918377378837 0.21162154622878923" pbc="T T T" Lattice="11.046252368800001 0.0 0.0 0.0 11.046252368800001 0.0 0.0 0.0 11.046252368800001" Properties=species:S:1:pos:R:3:Z:I:1:dft_force:R:3
Si	-0.42276217065871363	-2.9392972928139924	-4.537038281689593	14	-0.3290677994992602	-0.004500976973451227	-1.0084993496435029
Si	-0.38682871170300726	4.62746290358059	1.5440451561108641	14	0.8884554706879173	-0.7458848524698541	-1.4034005579756867
Si	-0.7401210012143378	-5.02973427609518	-3.5637308929698874	14	0.8176305179864582	0.06328570057118885	-0.8474350279681468
Si	4.680628516231624	3.999726473966424	0.08242713517598561	14	0.7146513221512273	1.4392561643283437	0.6477904996323726
Si	1.356424559626796	2.9779591761047923	0.5426361013649312	14	-1.1514515198910762	0.9606413094353309	-0.05103849748919549
Si	3.4694400827498106	-3.184689789186884	0.7072473541647889	14	0.6519184092238702	-1.236913518069606	-0.8601542859869193
Si	1.5905719710882498	0.9069746432450617	3.4222725851350346	14	-0.7005866047184212	-1.7623787969958256	0.6574025768717462
Si	5.084446364077846	2.941484450783015	4.910213825464764	14	0.006721126417399094	-0.8546001842743354	-2.2155021710816984
Si	-1.3702213288354275	2.774531392480972	-2.937529892434984	14	-0.6208098346238026	0.8811005668091016	1.0922680178581836
Si	2.6372817067986314	-0.6172314436114377	-3.719604560146024	14	-1.8951918134133947	0.7692759973409653	-0.4168149960863378
Si	4.246013716781188	-5.18105688729537	1.8187544062705512	14	-1.1193849514487213	-0.39231390504851876	-0.13268908914113806
Si	1.92195954215225	-2.656137659592173	-4.618681132947394	14	-1.2542461103643205	0.5977233657331289	1.5362490556466741
Si	-1.6097372189481176	-1.3387947408461913	-1.7581104807658394	14	0.14298173795875482	-0.8598652937489346	0.7759071350721592
Si	4.7605039671104175	-0.897242894908149	-4.222584615506964	14	1.6444594223662783	0.4054383692657466	-1.6558558466978346
Si	-5.658939857274396	-2.0897410693819527	-2.296803070035109	14	1.029110358331938	-0.21730159412189115	0.15988392722287628
Si	-2.1794808236260845	-1.3727619668802513	-4.025110761909926	14	1.108335626335385	0.2612014176896955	0.1327371688106248
Si	0.6812997073504777	-5.682921271167062	-1.8005170436096627	14	-1.6013892944852857	-0.32639384996630616	0.5430097302993139
Si	0.8958068821002049	3.0582433383212306	-1.9595941239727515	14	0.561921752592195	-0.8025080478249432	0.208148716292696
Si	-3.9923586236364343	-5.105014485988551	-0.6015457652477416	14	0.14607632032208506	-1.4703997059607656	0.7462178106088133
Si	-1.0937888633062072	0.8952435232293962	-4.219281786048692	14	0.3654844210327735	-1.4071975663124814	-0.8441761519748591
Si	-0.633833960921744	-3.4860205075553794	4.091366183617988	14	0.4690541997600424	1.6162466836882934	0.25210176174062743
Si	-0.2302922693847424	4.148685187159692	-5.388903171866711	14	-0.3569858895075561	1.4552409832142366	0.12372030245286549
Si	-2.7775801581347603	-2.5875072936248187	3.552806149377145	14	-0.11780136089535259	0.14157020113799354	-0.6176149791529866
Si	-5.053671504978369	1.3090361369646442	-4.756173836181848	14	0.8173690365753992	-0.13749602764768687	0.9447019991136048
Si	5.210130623530053	-0.40526490690653444	2.7943152304734924	14	0.9890677069654199	1.228872129070311	2.7096896966777844
Si	2.562829965832919	-5.194444945166357	3.6322176576564473	14	-0.11178574577780213	-1.0147571628822114	-0.11682305532103626
Si	-3.8672819080645113	-2.9948709884814253	-3.5525741780773994	14	0.5700415603037547	-0.05182576993822483	0.015885574220534906
Si	3.8487904815991403	1.3748718010826921	3.1977354132344376	14	0.796183642958443	0.9290146571132533	1.0618132753410296
Si	2.086106852352618	0.4182884384493496	-1.7129865398392912	14	-0.35403991703173043	0.12214781443906293	-0.13584229270576764
Si	-2.6467704375834304	4.944070588975136	-3.3508143785612674	14	-0.7971933160176651	-0.9789882027788435	0.8244436899743186
Si	-4.353803047395939	-3.218988402792008	5.158544624967757	14	-0.3182920399919875	-0.2439547003126742	-0.16822819242888487
Si	4.230913489793039	-5.628971374597842	-4.023829396635145	14	0.41054946953166904	0.3823056204793104	0.43257844280416574
Si	-5.165614226483789	2.5938699349892476	-2.5896834053414723	14	-1.376474914620968	-0.01759433081630532	-0.10587965974688997
Si	-3.2712703152535387	2.6513214935593763	-1.295515524065233	14	0.7993461025022252	0.11234136163748613	-0.5697032028436232
Si	1.2848669367817098	0.766278526823656	-5.182393483831996	14	-0.5975608718768955	1.1076319148092604	0.38250333847842966
Si	-2.110220821273708	3.202927151847773	2.2092615200123693	14	-0.4088489404729231	1.8617471325194404	0.10978516872819491
Si	4.4091558180159955	-4.103638569999725	-1.248403257712301	14	-1.0251971360346726	0.7308755109424256	-1.1585256590689315
Si	-3.8921912071561557	-3.3386193159461124	1.3740985634168763	14	0.36725925503527174	1.3561374715385968	-0.3707150776960828
Si	1.2168772534517456	-2.6029168156792943	0.6775329352927169	14	-0.7804325375461519	-0.09718572421734126	0.32084874712234285
Si	3.5681052089079324	2.354254628605238	1.1733771116234113	14	-0.5771406392032156	0.1095851367342874	-1.031556507933527
Si	4.838413185067564	-1.8597139100540618	4.5572197847673905	14	-0.3118352232014997	-0.6035037247138859	1.2271960255121066
Si	-2.0924142624552027	1.1483021187462354	1.5566599763160336	14	0.12300527806333232	-3.181610164648728	-0.4084036250314734
Si	-2.902093514835874	1.076236368292184	5.2872886963261205	14	0.3607476737014647	0.09720655017043447	-0.19583363603025075
Si	-4.581112828641105	-5.211157925000351	2.4083923114647265	14	-0.19741152336522563	-1.1933240269139436	0.5496236416248628
Si	5.112735816394343	-1.6914132089630252	1.1288607145771472	14	1.5972197329876014	-1.9499450438691401	-2.060388415559293
Si	1.5437910923063818	3.119538992715702	-4.317041119512573	14	0.7043239634117885	-0.9382395258914125	-1.0521834574749467
Si	1.3810797949139577	-1.8761286410740985	3.104527135746503	14	-1.979998693956351	0.8973653790643583	-0.9484686684076216
Si	-0.20394695748515443	-4.534022654792911	0.091849588446572	14	0.337607211599068	-0.0767708908648335	0.17677917450263333
Si	3.2789474606498548	4.273607255198451	-5.7332590432116834	14	-1.0426199741261242	-0.04737904328702873	0.27304778545227776
Si	2.7634740938598026	-3.017482667080359	4.405643109762718	14	1.7480551692572805	-0.5227604761294237	-0.19704205553072032
Si	0.4752760544199889	1.0028782063109833	1.3037781208370953	14	-1.247379716496333	-0.5771100430499058	0.033364205297433565
Si	-2.030533156685185	3.168783185775812	4.586094688459434	14	-0.9711365613521753	-0.20642504728606875	-0.28289589016004096
Si	-2.581840566159624	0.5202453478133736	-0.7751597137281713	14	-1.6188249881033379	-0.4050907558264626	1.556717882210905
Si	4.12237301401721	1.2695126459890778	-0.8672191809697505	14	0.9753292627977407	-0.5847940484097004	-0.4103309255794564
Si	-2.2370538909722697	-3.8662766990989508	-0.8352955116239186	14	1.10932524477311	2.6612793830468444	-0.2974768855411327
Si	-5.067247349139625	-0.43862458906031043	-0.5706604436245768	14	0.43549407623721365	0.8603628026283834	-1.0483684514009113
Si	-3.9278926948121176	3.901381689126997	0.6031364255888488	14	-0.45310074835905567	0.5400871548819015	0.23500339714057866
Si	0.0671722606546728	-5.646391314583441	3.579107276267257	14	1.6298804838694427	0.5805887485480662	1.4415171943468819
Si	-4.010750633830486	4.403831524374234	4.2776612298178005	14	-0.6460591173097848	-0.22322053567940403	-0.5690313730234685
Si	-4.4309611201920065	-5.33304227363769	-4.624226351636532	14	-0.7633318589513151	0.8973792630330872	0.06579124270567314
Si	0.35494922736665047	-0.7251975142640888	-0.5231394659339992	14	0.7586606748056699	0.2910380664878859	0.21471814749620638
Si	-3.492129085115326	-0.21649550017611122	3.365715773006779	14	1.1750709789146163	0.1756951964996589	-0.7341230740723048
Si	2.7543609356555425	-4.065838294393692	-3.02556852381432	14	3.8304764147470505	1.6634382933974832	-0.7073403841733863
Si	3.7155616317790434	4.10036887929856	-2.129010496553037	14	0.9636806130342779	-0.8432752366706792	0.4532784117366779
H	2.855708091888809	-2.584520386984295	1.984490167561553	1	-0.3431194042949334	0.534538195379958	1.4719086876731604
H	-5.011135700981831	-4.094203965851533	-3.232327857152571	1	0.276020754533965	-0.39443995203774923	-0.11253290898383717
H	-4.783651388949238	-6.796021192864405	-5.294752649051719	1	-0.060705853492952266	-0.15987338569106369	0.3582236196086753
H	-6.380789252445502	1.452629685382386	-4.1376422486666025	1	-1.70501460908747	0.02188370582190836	0.6502438483288578
H	-5.198851295236271	-4.900744977934228	-1.5541580001545006	1	-0.028129434865612073	-0.2733830575860251	-0.5734809278905169
H	2.0695197997956276	0.912586139448412	1.146767794292209	1	0.4497410850372182	-0.6755622937479521	-0.11982199256645695
H	-6.7707683553240905	-1.5280546011817893	-1.5175242087986123	1	-1.498586733585549	0.7201385751254873	0.6038729354378592
H	1.6699878978685003	-4.812057931540844	-2.545817632559731	1	-1.4101206559509578	-0.9938723314771806	0.4392046954352513
