72
config_type=liquid dft_energy=-6931.598514437043 dft_virial="-84.21756546652362 16.001013331015614 0.9327097176015403 16.001013331015614 -85.72646651546204 -5.468415853968876 0.9327097176015403 -5.468415853968876 -79.86191912119907" pbc="T T T" Lattice="9.90122247339605 0.37328966375861156 0.0562897112016954 0.3734382899983626 9.984720694888162 -0.14749668032889238 0.056834674080782396 -0.1466049228903864 9.935049805563379" Properties=species:S:1:pos:R:3:Z:I:1:dft_force:R:3
Si	-5.300727097154661	-3.3112638122444955	1.8663125734940853	14	1.069840266150532	-0.5001118664747712	0.8474232008836742
Si	5.482383041586325	3.2657633752071247	3.2949823031005727	14	-0.6828030405505531	1.0543814954131414	0.6000468736109468
Si	4.002415460750579	3.9813610676274527	-2.1796474029787416	14	-0.27990106668313247	2.1358120472363686	-1.8391520018554472
Si	3.4405359430551203	-0.5099752714080162	-2.2185062287824397	14	0.06800856393376885	0.29113474004792345	-0.55544231007489
Si	-2.6105624324136114	0.12401967949782443	0.6798471367106225	14	-0.05428143262949826	-0.6836134529474637	-1.2529803552152117
Si	-3.5525654483714324	-0.09229491320217431	3.3199247586555853	14	-0.048774125033741074	-0.31881268881931757	0.48405119998193413
Si	-0.8236241976793465	0.04207014342391806	-4.39120684131522	14	-0.1336468258728932	0.1895771083442024	2.4382491091611316
Si	-1.2855684226078312	-2.057060480432117	3.9762443616136247	14	-1.1353612856870574	0.5336591344709993	-0.4927366508639265
Si	-2.7632540952426003	2.342591303825755	-3.1547019221323906	14	1.0011081931796735	-1.2829257617684442	0.01866133952416677
Si	2.614533725539758	3.341550867380954	-4.0186385102402	14	-0.24695466600022303	-0.22293051499929137	-0.5146728072343658
Si	-1.1644875792906833	3.2690460334224247	2.4014433314007575	14	2.1416075757385147	1.3264782290074966	-1.123906240154202
Si	-5.465272198024592	-2.672620823400842	4.356773114089708	14	1.6093558643197647	-2.8285920048712243	-1.8913950621871323
Si	3.8238856215616783	1.2811334156136616	0.6028032573900974	14	-0.46187721636938117	0.42519679943002053	-0.08498454392057857
Si	-0.64651819786726	-1.5014648801533306	-0.6912477601411225	14	0.706641814857902	-0.9827936957631944	-0.5723511842128437
Si	-0.08211896998722251	1.548766667216484	1.0966317741115652	14	-0.15686005025585015	-0.3758382621570099	0.7341701252996634
Si	-4.983782631727252	-3.9436278378794687	-0.4690782844365327	14	-0.7177230216772081	1.6579741803711046	0.6591434722840184
Si	-3.470143280855118	5.426489667023966	3.6870226532661703	14	0.2440431463356873	-0.4417621738972026	-0.7647408246667562
Si	-2.872010850759595	-2.026183874544646	1.902914262136765	14	-0.40659819487566545	-0.6132446143297988	0.773941525054906
Si	3.8659627008767843	-3.592714349936169	-3.162699004672593	14	-1.743027372803731	0.30885299814066	1.5034944594206476
Si	3.9015071615340355	-0.3696037330127868	3.4126556421610297	14	0.8974545964189676	1.1020096788056926	-1.3126341124111593
Si	-4.226527976829513	-1.3411516637499101	-1.451324331910933	14	0.43855112046286976	0.2053266710933015	0.9245962126205788
Si	1.725736921729598	2.7899225968619215	-0.3163192443788566	14	0.24990629490775298	-0.20948337706438486	-0.17711984595755298
Si	-1.6824589423973033	-3.6391838300567168	0.379203997259103	14	-0.47633891246361804	-0.5233739418588109	-0.5051481475758772
Si	1.1348911407482676	1.6361024182189665	-3.170518726566692	14	1.3388899828299794	-3.1436974169294203	-0.5212460950958563
Si	0.9156337485011989	2.9821379402070947	4.226913414211268	14	1.8533581300808615	-0.08214578653660308	-2.0431735798882413
Si	-0.032284591798712216	-4.713559320186369	3.5892355050843974	14	0.3413731095614889	-2.904297429691389	2.956740522016981
Si	1.874558357275471	5.556025361699748	-4.050225549553681	14	-0.21771348519417888	-1.876265135820189	0.7623201290078367
Si	3.0120673015265527	-4.924497606373775	-0.04088806939709844	14	0.163525383687802	-0.9973242974800114	0.14173758009433515
Si	2.8236934510581433	-1.1490651298125212	-4.423993789804291	14	-2.3254596038663435	1.8796075727363812	2.0459915113191234
Si	-1.010282901341029	2.8418605317637073	-0.8246279202184649	14	-0.16538763527118525	2.0876812127537288	1.451206918966924
Si	3.4071743064390128	-4.669599641834417	4.694973113484707	14	0.737427201519227	-0.10306481364239187	-0.8491077890894352
Si	1.1106036314897574	-1.8584215110049056	-2.5598670128761434	14	1.0160128907205719	1.647196621090108	2.3434637688706808
Si	-1.5407190517547662	-3.299902822477929	-2.6850548946184105	14	-0.12375964036426376	-2.697077139529798	2.214279610501968
Si	-1.7404846080792906	-4.935223466675805	-4.430593785690833	14	-0.46316842546115944	-0.19704642640976458	-1.0555053255485782
Si	3.8330271261479627	1.8516362277394731	-1.9988069211825117	14	2.018441860703205	-2.986445273112248	0.6351789709265142
Si	-0.38579507557126075	3.111149479677356	-3.0764630878442674	14	-2.860195260134889	0.552873775860062	-0.6073295294302663
Si	2.393361036483098	-1.2189789129913915	-0.22658169334199782	14	-2.833368347224464	-0.481790169963396	-0.3277393093803396
Si	4.413585989655327	-1.060757363202067	0.4922074998665834	14	1.4942292242889619	0.6408575141365932	1.5147139917061778
Si	-3.176313168233784	4.625682569671192	-1.6111540176143635	14	1.4964066933845954	-2.1283208747755853	0.34798599244490974
Si	2.8427086921718865	2.5788019958204207	2.6431185148102685	14	-0.08226354316026585	-0.3331016066360405	-0.34596896032125357
Si	-1.4275589961747481	0.7074916173043084	-1.396730941525596	14	-0.6045864171642004	-1.1281377652901012	-0.8741650102080023
Si	-3.815649746196276	-4.045832157906641	-3.5192929874991754	14	1.8680818218072215	-2.3011217780163533	-1.828869894569643
Si	1.4175960839034396	-3.5616990262249306	-0.7179598587907706	14	-1.8328229689993707	1.181693889108786	-1.2096338335123031
Si	-0.21658013824835387	-5.0735152285561185	-1.7963264588785361	14	0.6430609513959602	1.5907505748915771	1.2403677980672252
Si	2.011574906018721	0.040929684744228714	1.9588690688782213	14	-0.40856123378759845	0.17035655341290346	0.16619599078383981
Si	1.8163305599074224	-2.6576769504146784	3.9270738472960023	14	-0.33094547771456434	-0.6229091421177035	-1.0579879848457132
Si	4.33569593160982	1.9259939354868987	4.875644161367621	14	-0.10503273765443322	-1.0579373340709064	-0.5046604088966452
Si	-3.6078167575780675	1.7568939357893991	-0.9129634303936727	14	-0.532351727415704	0.0060035309225457655	0.06288435103071374
Si	1.3076859887659766	4.3695331721931305	1.3105197957372292	14	-0.700686106494311	0.20107252023058447	0.3705867795406074
Si	0.8952630360809268	0.51152494766782	-0.9222060008229882	14	0.20487801321493565	-0.6698377277526423	-0.26392421822373235
Si	-2.2546937456370135	-1.2740588066015137	-2.6990782757597165	14	0.3302312246566272	2.9741255648602265	0.03404657664940086
Si	-0.4181728064802169	0.07703099837974661	3.3884563178047715	14	0.717509877046168	0.9077675569686136	-2.1080991314326205
Si	-0.3255251536690335	-3.201381460671786	2.191225387055345	14	0.5489099027879897	2.4484044609546523	-2.5451119595824463
Si	-2.0897146561470104	2.6229578608088446	4.3033261274336505	14	-1.0639408649934523	-0.6311248520577046	1.549842746584829
Si	-4.4532295620049105	-1.8981641675143228	-3.65006327080649	14	-1.5762148309641195	-0.91746550912568	-0.41076389971536936
Si	-2.8056096010468403	4.49831879977897	1.1837990820423299	14	-0.2407601019523902	0.7442349741859151	-0.27145678548017016
Si	2.013244474111924	0.7899365741773848	4.391184051958458	14	-0.9486501884432242	-0.4627130827089613	0.5010400354953447
Si	3.014650425573425	-4.9895503206711895	2.431627339010989	14	1.0729572171301474	-1.0313446488551468	0.49054555491009627
Si	-0.12103724628682104	-2.690231051128139	-4.187728601521716	14	-9.778995967862926	2.784111111501067	-4.990284798260204
Si	-4.372448228175448	3.574144987541679	-4.16179134100197	14	-0.42228810798133704	1.3699679612767373	-0.2730619265315386
Si	-5.002195441149204	3.037367450898566	0.7429627556832821	14	0.8632069593335311	0.2597988797375547	0.8482827213921996
Si	2.271321058498757	-3.0439525841611337	1.4693853925654747	14	-1.7895790343987361	1.593596017149385	0.696397245709772
Si	-4.261516575350096	0.2126009183894204	-3.7286518721788275	14	0.7236620178562182	3.900244643161929	-0.5636204818772169
Si	-2.8837988932550465	1.8498705480112314	1.9435357951439098	14	-0.42508469923806214	0.3118077123745741	0.44044756774701094
H	2.3355612826855325	2.03823845343005	-1.9138016296193248	1	-1.2531369355292086	0.3205880370428798	0.2806261183834142
H	-3.289634730994332	-2.486438714547961	-4.447218126027782	1	1.1660775096152705	-0.2359151110871032	-0.7008725116300216
H	4.904696627872548	4.3973104255609945	-0.9840939670553046	1	1.2015376799696889	-0.1284560213420462	0.38645152780804914
H	-3.7655032529042884	-3.829422444413202	-1.9921890901471988	1	0.30269777200422543	1.0851655965218066	0.8785461736735346
H	-0.19553466269961228	3.214704316803066	5.140143380994894	1	-1.3271449166170108	0.04153929177337639	0.8401832254126692
H	-1.8083394224168103	-1.2654424480623492	0.5442980243745138	1	0.4664293583387033	-0.4958849693284478	0.323942301043545
H	1.38744081069956	7.013789173158294	-4.071020342178042	1	9.39769127868475	-1.3992268827094905	1.9698515696998546
H	-3.876356629243371	-2.006636551492594	0.5903295525085952	1	0.5631312005347927	0.06628489492714158	-0.03778599222702423
