72
config_type=liquid dft_energy=-6925.555440539153 dft_virial="-29.667643414291874 23.293665710316066 -5.200640609779509 23.29366571031607 -22.554809493319624 -3.3373860787109266 -5.2006406097795095 -3.3373860787109266 -1.5827517669423063" pbc="T T T" Lattice="10.914011036500002 0.0 0.0 0.0 10.914011036500002 0.0 0.0 0.0 10.914011036500002" Properties=species:S:1:pos:R:3:Z:I:1:dft_force:R:3
Si	-1.1717827949338226	1.0762633703423747	-5.079249768254663	14	-0.09494526304136423	-0.11033332838245048	-0.8939872037842159
Si	4.364993229981957	0.7758879585958216	0.37740650164217004	14	-0.611214726679542	-0.33805149859838957	0.09063840451958419
Si	4.30913532149715	3.174100001723222	3.64422102712046	14	1.3654489865660449	0.5857679831049725	-1.2836055620150912
Si	-1.4404311765972702	3.375976463865363	1.5271648223043357	14	-2.167950092406624	0.13481205080398428	0.32110688609648563
Si	2.221514204446466	-1.0822005923462306	2.188422922983798	14	0.32880734653032917	0.2080877810966085	-0.13049696474517977
Si	5.141044898743326	-3.188473754258293	-5.372760267059258	14	-0.14265212225671184	0.2655486425650018	-0.2581618569802165
Si	-4.796140321967853	2.340149504413221	-1.4628376412552049	14	-0.2925172233785671	-2.47528151041882	1.2206142530030595
Si	3.472641859615644	-3.779576591995133	-0.8685588263067431	14	-1.1655506901351722	-2.514969349251158	-0.8023532672846703
Si	4.923790595050757	-0.7478171222099436	-4.681062989598996	14	0.09956451085954228	0.21602298344618154	-0.3849361183323538
Si	-2.863738269878272	4.678509111016456	-1.4125349643879763	14	0.4343059684687732	0.8797041995097292	0.01614679852106195
Si	3.528226917824538	3.1810413127424364	-3.3003205393603454	14	0.2810089559655843	0.1233107253753659	0.6930771774098647
Si	2.820922604582082	-1.4467503889874038	4.50399407454282	14	0.2951580056528912	-0.3829651089939283	0.44871007180383876
Si	-0.6874408131560256	-2.6521265098915734	-2.70430639665708	14	-0.39710773091793483	-0.3578389822527812	0.6194723456362615
Si	3.7327773126706214	-1.6625531292121183	-0.14469795832191704	14	0.1983684887653847	2.3361512882296473	0.7475038774899513
Si	2.153039699203465	2.9292550781303817	2.551826748466138	14	0.9713743885942889	0.3865618282262835	0.2038128042807983
Si	-2.4276143888597317	0.9447277093304767	-3.0281360181210712	14	-0.9539548929397538	1.7865960380063002	0.8507648664682707
Si	1.6911041820836024	-1.3246335195000052	-4.0406069939551035	14	0.9404115956658737	0.22752019510628768	-0.3690955384549215
Si	0.025953518244797004	-2.5788280117704394	-5.136995800648784	14	-0.030087845787968866	-0.49707667664433636	1.2901878487452025
Si	-4.990202352207859	4.288398700527799	2.0960139915377525	14	0.1360312689467985	-0.4798281594935911	0.38385805387161576
Si	4.58176731718892	5.241126379948031	-1.783393059408246	14	-1.9998162595429883	-0.5258946535146841	0.38980810580350245
Si	-1.9290514507013752	-1.5822478360055512	5.419406750229259	14	-0.7017700844972854	2.56931891617164	2.435150670139821
Si	4.17532954618966	0.7715005261591487	-2.452443763967769	14	0.7348717799415319	-0.27190030114789565	-0.7076769418597936
Si	1.8679875589521577	2.3472763536200554	4.906470059535831	14	1.0966301551443467	-0.3213184880643339	1.3381901279618351
Si	-4.699846002592813	4.060535978107753	-2.763263884276253	14	0.5329556800554067	0.8117028346708568	-2.3434637688706808
Si	2.0817384651020103	-5.464459787787931	-4.919457732669266	14	-5.073599409275346	4.638543706495218	1.4286210442820833
Si	-4.802492276391096	0.8776611115111841	3.8414808625941608	14	-20.338952835415295	21.058300538544305	-7.332060636488207
Si	3.998380685254885	0.9291970716255372	4.11436388053977	14	-2.9054096898528847	-1.2198861159763934	0.5989335850073226
Si	-4.6559280221819375	-4.934213475590614	-4.15477846340793	14	-0.023010107062665236	0.45186481803166045	-0.6954639344785581
Si	-4.005147372097515	-2.286245203903947	0.17579197576490552	14	-0.1489104497164843	-0.001727782775139509	1.2065582773283419
Si	-2.475963457751427	4.592342993883288	3.5004398457256087	14	-1.3003244314698863	-0.016691615738401326	-2.1783820951325925
Si	0.7696888003270896	-1.0261898877069127	-1.674853219650254	14	0.4969059552510786	-1.0426256305578285	0.6149415438410967
Si	-2.9346356855713758	-1.2135616291815448	-3.058858959188819	14	-0.23838208664178526	-2.349588141743273	-0.5280790645946819
Si	-4.447350357263386	-0.42591928069941254	-1.2285793083677687	14	-0.8131714500297254	0.22015757791151166	-0.4507121915166381
Si	-2.5040015521041954	0.17586837384216103	-0.05204891863306851	14	-1.196629697024058	0.7555349820679659	0.34541951511433794
Si	3.426290054743628	-3.5132310666603868	1.5028484057150135	14	1.1821204354813983	0.15339188628950237	-0.03862417256139251
Si	-4.601117858756634	-4.3676235066417535	-0.8775956274449651	14	0.711468293764884	-0.1290113800911982	0.36355480649000244
Si	-0.4130407476763425	-0.5086693123781556	0.31322120273651355	14	0.9480876305991756	-1.321277911386965	0.7693477311793975
Si	-5.137094026748112	-2.8244369161358356	-2.7799514071510614	14	0.6957686104589957	-0.006082206745342295	-0.6179769907820635
Si	3.6122429747835154	3.17535511299242	-0.20409200638255004	14	1.8565239320615596	0.16373441455033003	-0.8662758306436598
Si	-3.417537017892355	0.5113650731041711	-5.312100193718391	14	-0.7675273886127326	0.13031595893064135	2.241918221361964
Si	3.417515189870282	-2.18087042734654	-2.5447326412924136	14	0.29585271831039517	0.8476707983260043	-0.3288729097159929
Si	0.8050065400412036	-4.716369815302074	-1.3145162312691696	14	-0.7756523385349325	0.10612340053124002	0.3975016242529815
Si	-0.15826407404028653	0.6872225329352956	-2.7618232348194347	14	0.8602476171100407	1.0418926084310542	-0.5383112924372753
Si	-0.187328085430486	2.796791726180381	-1.7583672321015518	14	0.5614913495616022	-0.6484821269634923	0.784898804597781
Si	-2.3042751501362453	2.461807985437086	-0.6793098749338331	14	0.1785043861724527	0.17802281814598894	0.6411040831367953
Si	0.6388952920656736	0.8761768060102202	1.9023557797060962	14	1.9318313497781652	-2.5770368601216607	-0.7481199143246587
Si	-0.7729193475938936	4.804085722002425	-2.6645139124180006	14	0.15217601058360436	0.9243195616881309	0.1506868263821746
Si	-0.32491010855660507	-5.686221578038573	-4.963986897698186	14	0.34551464601118337	0.24383848635220354	0.13484110429410198
Si	0.18960911373711453	4.814988819027888	1.0548391666777253	14	2.026334125593932	1.268527571975615	-1.3758812464025458
Si	1.3699157512904436	-3.7504143545056055	4.416376393941799	14	1.2161418152986618	-0.7001888547253944	-0.8589875183926361
Si	1.2714277156970677	-4.0412836626393664	1.8279877085033853	14	-1.6495378695946346	-0.17749985532387083	1.4054111623360426
Si	-4.594198375759493	1.8260013584947423	1.1066916331121368	14	0.5281456562224738	0.3541553596606051	0.4068393645546953
Si	-0.10394504111162602	2.0903823618429183	3.7135468252243076	14	0.15730819391315193	-0.424578705711057	0.3170913338074784
Si	3.036048676122534	4.837253401542348	1.3021070007206692	14	0.07483716255355014	0.22830001134988862	0.6420538494420581
Si	-1.9345302842416983	-3.631484376240864	-0.5874029879954666	14	-0.026426591812078	-1.3603417429581028	-0.09430711470090347
Si	2.207609754385965	1.0196087390519033	-3.8690605684833965	14	-0.4670739344424645	0.48686347498111215	-0.1765176930915743
Si	-5.079500790508503	-3.9816167643028213	1.8034966677374793	14	0.13427289001834927	-0.5509079087322767	0.09118759261596782
Si	-3.592597754917815	-0.4416572846140456	2.1967284853825744	14	0.8170808156690106	-0.8928978264600692	-1.884813032567553
Si	-1.4350723971783486	3.3936462477334564	-5.934591727196204	14	0.05528133548850384	-0.35835577442213096	1.724100438099993
Si	-3.6867965841738464	-4.530929853780902	4.276076782067591	14	-0.718463500009411	1.3494965636071863	0.1180286466056537
Si	-0.6653945108622956	-2.8013756108157106	1.2467947927876872	14	-0.1923099361889878	0.4039831236545428	0.9155978582211245
Si	3.4760033750148853	4.178985739886887	-5.460203323483695	14	3.9329012802752583	-3.8146144946954617	-0.8989648636840225
Si	-2.1702401805969886	-2.7137033601595064	3.666398297546628	14	-0.4464426140220002	-1.3413196773575193	-3.360984098640455
Si	1.472605681132872	2.623575457020089	0.175257189224117	14	-1.4447562728292045	0.07487727179654444	-1.2461880091804445
H	0.736633535100842	2.768408749078859	1.8341988721842573	1	-0.026959324834412685	1.2788387327515367	0.2765159494186255
H	-4.2764085680031005	-0.8295608820711213	3.6093180198257335	1	-0.8333489703611834	-1.7504930913218453	-0.7082664963097035
H	0.35894436057282664	1.4613031313034728	-4.920537128360777	1	0.5787336960595793	0.10682505517310843	0.021571573636042382
H	3.2872870273805566	0.961843061437916	-1.1137791918792397	1	-0.07414039301179001	-0.2556989951940466	0.037040114573649266
H	-1.7247367984936806	-2.1580448646648036	-0.532915879296844	1	0.1428161587761373	1.4888322171114392	-0.44125232371221723
H	-0.3406448382679271	2.0882868717239105	1.7252988700620604	1	-1.786673685386969	0.5021193855087428	-0.7362586341512197
H	-4.10380566626306	0.21093399990133188	-6.8954688986573895	1	21.93793094733135	-18.94315657853448	7.069601434075896
H	-4.42996979468776	1.9353913997124783	-5.187965323590343	1	0.5720555071010267	-0.829713684549026	-0.4733322619022369
