72
config_type=liquid dft_energy=-6917.168019976306 dft_virial="4.922525103220265 -12.111751266337542 2.69282653561225 -12.111751266337546 -40.93549913068355 -13.27553933026571 2.69282653561225 -13.27553933026571 2.5543655967243857" pbc="T T T" Lattice="10.914011036500002 0.0 0.0 0.0 10.914011036500002 0.0 0.0 0.0 10.914011036500002" Properties=species:S:1:pos:R:3:Z:I:1:dft_force:R:3
Si	-0.38810223245794007	1.6605558651924388	-5.622069021166027	14	0.07120110540979671	0.7833114041731217	0.585326781432035
Si	3.9599306243732952	0.9359746724792036	1.1985112079622111	14	-0.07809115344672954	-0.04737750062383664	-0.667609607882202
Si	4.640342814421816	4.369980933025637	4.886693871537693	14	0.33548964925739405	-0.28667207254374244	-1.1216500952357715
Si	-1.2479953340017023	3.0666952191130257	1.7330903825410178	14	-1.1255867145914507	0.09414462084467012	-0.21838325813007747
Si	4.3672306022444385	-1.0272922028215992	3.661094088182889	14	1.1047332506713254	0.1935335252108463	-1.0998579207632606
Si	4.896756589713346	-4.183034837981428	-6.154192543261622	14	0.3584753308195179	0.37907014154443597	0.7978790298065486
Si	-4.557647352798255	3.283272854121332	-1.3764750719233803	14	-0.06244854867894863	0.016795745503867327	-0.04207048213251899
Si	3.1604902299607067	-3.2044191243826194	0.019557907777408002	14	-0.7256754504324263	-0.9052743561396659	0.5447588532486105
Si	4.606749488451468	0.066444499190212	-4.354024648890274	14	1.6293240966781626	0.253726700302961	-1.497061296799105
Si	-2.4874013413176788	5.122501993992312	-2.037111073973762	14	-0.6460385484672236	0.7720013689803222	-0.9829662169301764
Si	4.206259853467101	3.481078390146858	-2.695727983982391	14	0.38699685924645255	0.1747798830056862	0.7246032995139244
Si	3.368707732515054	-1.7549402326360908	5.521299957266022	14	-0.06794531474289321	-1.837025954866217	0.8093309900130202
Si	-1.8128063191516137	-1.5385263077933324	-3.766370638640968	14	2.2533724955632235	0.9903116077193076	-0.4319333524793405
Si	5.100597573842056	-1.7817450437417348	0.26754606654876106	14	0.017950686013677844	1.3722454463693243	0.6690455702035046
Si	2.289028276718255	2.6237500811966736	2.1874406619905127	14	-0.1497496584929806	-3.93408193183827	-0.2917129816344247
Si	-4.130800381160739	1.6457018961717622	-3.4702844332317597	14	-0.26306778304159095	-0.15862357139493968	0.07369096380182813
Si	1.5482943476709996	-2.6702655962342363	-3.9303645684754174	14	0.4533555448962823	0.05228162691148709	-0.49414124570032336
Si	-0.6548297481789636	-3.296478807475497	-4.896811159768529	14	0.41450228685086465	-0.38873621199553265	-0.3616617016427774
Si	-5.56992187643363	5.802292085411752	1.0223044997779187	14	1.3908970156932745	-0.7414234705183331	0.1508254089589306
Si	2.0064754449943063	4.28512449721685	-1.6629132915763227	14	1.1150721793847047	-1.7177834894389215	-0.9283981060574817
Si	-1.2077335472880537	-0.38302721732596756	4.626361966284058	14	-1.5063036490934414	-0.8862929140031407	-0.11905734584424495
Si	4.206117971323626	-0.038570115002991005	-2.1936070782261354	14	-0.6338674501027066	-0.4138517972048672	1.8815392441634085
Si	2.013755090355652	1.3939265755707437	4.882262783056874	14	0.36758167164241834	1.3464055807913042	-0.2607365618478128
Si	-4.453407633388643	4.010560721571619	-3.804176772871404	14	0.1670064031807505	-2.069098291941827	0.7438436519561886
Si	2.5867624977939747	-5.322010115739532	-4.066604168244046	14	-0.4495091713373408	-0.1539446739333342	-0.17335009133715185
Si	-3.514977308426227	1.3630944943926313	4.366783127791943	14	1.2218807794837645	2.025804477897981	-2.1150935663455517
Si	4.18399527095264	1.4362838524034	3.5012147405092002	14	-0.2686655935446174	-0.16815568725885668	0.963925382260756
Si	-4.445582287475473	-4.560081177259394	-3.7922805008416187	14	16.977440631742084	55.21393833341521	15.593066510246022
Si	-3.0629626273385426	-2.122054821870841	1.1812561565135047	14	-3.5171820892763668	1.0905600325940092	0.6546635783741924
Si	-3.2378378261763823	5.17417983625014	2.3360567502745333	14	-0.11017134874728116	-0.6364663233603124	-0.10503068077017708
Si	-0.25428554313941354	-3.181183194885911	-2.1982237048945747	14	2.2722899171772775	0.5584975545268218	-1.141636839552475
Si	-3.950719199058489	-1.9665956486669351	-3.58855957083431	14	-2.149430420785597	-0.1798691288763873	0.07277050809721511
Si	-3.8977971595425007	-0.31939853298317256	-0.33316110090019907	14	-0.2860316102084936	-0.2879578823143485	-0.2570974193776751
Si	-1.9970784814918798	1.0306755462429142	0.4268906276816611	14	0.7879730752290822	0.4734281641306784	-0.3779121157082413
Si	3.375277967159027	-3.7328100547037306	2.941053124060838	14	-0.5790198600817118	0.030602838183594525	-0.8086871852408551
Si	-4.330264846863813	-4.223514904915807	-0.8633528430423326	14	2.226695220982431	-1.5876971302133691	0.46138819213748894
Si	-0.46341982262082654	-1.0887708269902037	-0.5629556032737066	14	0.19055207148160258	0.5880760643508695	-0.09677614713984169
Si	-5.813184268426178	-3.543419221187346	-2.301033688858405	14	-0.6811323363135209	0.5043176805574695	-1.9168646885990512
Si	3.6280901188085135	4.839174267484772	0.06584422858320452	14	-1.23343661234517	-0.2611548806834008	-0.4315266036176931
Si	-4.163356876082619	-0.4572534063852041	-5.78994833892947	14	-1.529097783309214	-3.4943743282023974	1.6201743041753518
Si	3.193668823511667	-2.357098963552905	-2.187407919957403	14	-0.49994165930257733	0.8223855201655401	0.06589485825007511
Si	1.2281209199042358	-4.731027332124094	-0.7945072614240907	14	-0.4921152147080467	1.7105918507479352	0.48344519045797524
Si	-0.0029249549577820004	0.5731820316149071	-2.7459651767834004	14	0.48168783997165415	-1.2014006400561248	0.009998257258459835
Si	0.04379792628947451	2.9338607907877843	-3.0185971724751703	14	0.045257624287374544	0.04867796569476754	-0.138105893829626
Si	-1.9924509408124038	2.9974239910643603	-1.2065330060740387	14	0.005493937848092416	-0.05706131170164236	1.2552329005861935
Si	1.84624684896745	0.19637580057974452	-0.5690783634651831	14	-0.2506598858770884	-2.845359982437634	0.030433916564060796
Si	0.12934194479356154	5.426653653557494	-3.2828362936798716	14	-0.20075987382365448	-0.03772479992040471	-0.6595517638088579
Si	-0.0273395976464325	-6.21665342842351	-6.217330097107773	14	-0.709317307054048	2.0154411236840604	1.6213223027007977
Si	-0.24697315574495854	4.579268008661561	0.21126251163353052	14	-0.38284246727015725	-0.7276639432870288	0.029087685818431266
Si	1.5897239335655537	-4.323159825679052	4.371017764074105	14	-0.22583714956371878	-0.058545096581899825	0.955542807585477
Si	0.4159875306561976	-4.953520361114182	2.3881384109407113	14	-0.7709482442411896	-0.2154671104759655	-0.33515771956056295
Si	-5.65985332737439	3.4140663623827483	2.354381374804817	14	-0.10028673434397187	0.4788051166867041	0.5442860269802353
Si	0.31000156948074603	2.977080274492325	3.4286474811275123	14	0.3151509206223626	-1.8785662750817211	-0.8733764522063128
Si	2.610096653390012	4.678094378597069	2.2191458640515456	14	0.8997619063332686	4.075977892020326	0.17077024425891527
Si	-2.094202265705693	-3.3925766746518797	-1.118380538932228	14	-2.193905400613519	-0.4588371414388381	1.2377648110411072
Si	2.166365706679031	-0.25883668574163404	-3.7080134216288023	14	-1.2560104028350059	-0.5116497015989356	4.2613980372829126
Si	-5.217890450451322	-3.431419639930783	2.470997582729819	14	1.130819685249548	1.6681943240186932	0.8436107659149585
Si	-2.6963500826114712	-0.10947844470713151	2.3519475503436773	14	-0.07384060213146074	0.4129531958954754	1.4726946745695297
Si	-2.551619382256445	3.4460335007086567	-6.188167859618245	14	1.109620921884927	0.8330363239542534	-0.003121064748127753
Si	-3.4806527437164343	-5.0688378017258415	4.694912869604315	14	0.354345878564828	0.673027183902286	-0.4989468986542121
Si	-1.1109371834053352	-2.922553875353971	1.0573057331719742	14	2.7598473334842972	-1.2234928625194972	0.059410016411597634
Si	3.1149788039385022	3.2338105561039137	-4.683627782192574	14	-0.8843674132288818	-0.4879880764481449	-1.0147509922294433
Si	-1.8355838601847894	-3.3448824464223748	3.741028305014215	14	0.19718629453918066	-0.3602694481119172	-0.011968752375821321
Si	1.1383422651179866	2.2297324547569506	-0.6136402705272126	14	-1.478532626309458	3.0863324576894686	0.08834343591082001
H	3.233736340828866	0.9684034734719561	-0.5727563851844836	1	1.0296878285868434	0.38578175487215055	-0.10033352846079856
H	-4.387242532880966	4.472197194789081	-5.345130356719254	1	-0.5230823785155061	-0.5472926775416166	-0.8886786426297062
H	-4.668922243721994	5.590379098720446	-4.0272296906276654	1	-16.434241668091204	-53.39977567549787	-16.57371153329317
H	0.6910140603693757	-4.169911831111141	0.9559898773190411	1	0.2751108403611646	0.4631054333808159	0.0740917991212392
H	-5.416623677414951	-3.2991898478169635	-0.17142855415251285	1	-0.2952161126331266	0.5450139068963692	0.7588841038579909
H	-3.249132736198056	-4.719342791908417	0.18479821767222535	1	0.4173310169240915	-0.2520889062140267	0.8554962144784071
H	-1.7380093273151682	2.242581519950222	-2.5106896580673626	1	0.014600278670992882	-0.4117116091363759	-0.9718549281786244
H	2.3338761308694407	0.09667958396462796	5.862067032457559	1	0.055663658849609866	0.6976005229996013	-3.1537668938052486
