72
config_type=liquid dft_energy=-6932.402918405504 dft_virial="-91.35153438763813 4.80849671979713 5.12000015830112 4.80849671979713 -67.91765288237703 -9.467543813028763 5.12000015830112 -9.467543813028763 -91.89981645136335" pbc="T T T" Lattice="9.90122247339605 0.37328966375861156 0.0562897112016954 0.3734382899983626 9.984720694888162 -0.14749668032889238 0.056834674080782396 -0.1466049228903864 9.935049805563379" Properties=species:S:1:pos:R:3:Z:I:1:dft_force:R:3
Si	-4.944190583140783	-3.7722964629025078	1.7763827991871486	14	-0.5571047867748976	0.8620021393805096	-0.45890861816673817
Si	6.028679593464691	3.686547049298967	3.2477538383156968	14	-0.4396366411290363	-0.20134788561037234	-0.10918301586221624
Si	3.720917362662185	4.337503226685192	-2.300229852971925	14	0.0852717363848391	-1.4865570460136401	-0.6156781655153191
Si	3.4496724934334138	-1.3048244382299707	-2.1801507505106987	14	1.052912365833209	2.5604856267337395	0.5523387288429391
Si	-2.6790712022060355	-0.4337062302173931	0.6762860520061885	14	-1.457037414501424	0.501705180441667	2.0084675147242224
Si	-3.1382569241247418	0.17752413496658606	3.0136962451142235	14	0.207054196757909	-0.20762523924951387	0.9639528930876814
Si	-0.4783545434801918	0.7292485171206582	-4.224050872833664	14	-1.0073981452348835	-0.4784279355362383	-0.5424762259453831
Si	-0.9556657307573316	-1.8769670932010354	3.321807357692432	14	1.0127622422643086	1.076442864612672	1.668571248058627
Si	-2.850254941784844	2.289505974353091	-3.1316935893773374	14	-1.0911611570178599	0.75213340972941	-1.4505913963532806
Si	2.312830385578015	3.5905444068358046	-4.169672495075166	14	-0.453019244320407	0.0780451306614989	0.3169653496467912
Si	-0.4433074853053077	3.328233956299265	1.970784929939858	14	-0.2984482491310847	-1.5821538271431297	0.961065798923687
Si	-5.716102757802764	-2.696168173985392	4.115986715593909	14	0.5157912380486303	0.8839092422608313	-0.13543760072837635
Si	3.4635432849685754	0.9349105717969036	0.6081894723186737	14	-0.46770308391430465	0.5180864637679264	0.4080544689289973
Si	-0.9891641035140103	-1.3696512406429635	-0.596052653580607	14	3.8181122263729907	-1.1687537731430124	1.798000946985413
Si	0.056815848090413935	0.9947465050790579	1.0515623531694718	14	-1.9514103167910926	3.0397841385313797	-1.4945138456479024
Si	-5.073743122123737	-3.639274987483764	-0.9183387460646671	14	0.9640868476748611	-0.32862736915791885	1.838418722618141
Si	-3.5579605808743935	5.6094148795431025	3.7786437941814737	14	0.9945780998875612	0.3970077149209811	0.5035345218769522
Si	-2.916808781103743	-2.446991328834849	2.524971553465805	14	-1.6609967717854706	-0.1768825329365033	-0.8527104218640266
Si	3.6604938603122155	-3.4152942533374087	-2.7745992315435934	14	0.303993351975048	-1.2834551523538626	-2.078447602217481
Si	4.465409977773304	0.5266977050632003	3.391497210670077	14	0.6849925938411912	-1.7173366313342795	-1.527044755711076
Si	-3.8197964182853283	-1.45456141141271	-1.0420532463502028	14	-3.58692409241698	-1.629695364286392	-1.9562681631829801
Si	1.6252299133603816	2.6786689205171093	-0.6627759268128226	14	0.24413544901668063	-0.0247180923268396	-0.039789140381951596
Si	-1.5605249844639846	-3.533636410476745	0.06829970221517453	14	-0.6216431298580627	0.7592453441554716	0.7864849194697805
Si	1.404115683958024	1.295671043544506	-2.99636444387606	14	1.0649068292622317	0.7006269710719476	0.7208389442146956
Si	0.7915159756851389	2.918664627417434	3.9918679519362503	14	0.23421329647569716	-1.1358135431128713	0.32764520692562227
Si	0.21777905658234528	-4.759763254758561	4.04261588607843	14	1.1431746176444555	0.9088687613772329	-1.0824278835769128
Si	1.7723163852675612	6.219211496934284	-3.552451501587623	14	0.6021428386679316	-2.132411760450473	-1.156138130668642
Si	3.1650354091614785	-5.138449041861732	0.0555119005469985	14	-0.43493408949848544	0.6479501652727537	-0.474826845424839
Si	2.5041242462367315	-1.2090387900768447	-4.310788155510749	14	-0.23913567761112067	0.059725491034379796	-0.006760207218265343
Si	-1.3854957886420185	3.0293376705856185	-0.23302216373120782	14	0.2762855783819403	-1.0673699481589334	-1.731651003093672
Si	3.4504730934448724	-4.568835014649632	4.720777601230276	14	-0.921493916941288	0.46135502487885904	0.4135517492140059
Si	0.8363218327620736	-1.6822221312552998	-2.517563030835017	14	-0.4288781080274086	1.5234449511523365	0.0594928060029064
Si	-1.803888561957067	-3.4776538601705353	-2.376184797375874	14	1.17061911005278	-0.909285537549629	0.4111451946343473
Si	-1.522533145058834	-4.895911826261666	-4.496130030688238	14	-0.7282175022624565	-0.8157983483353206	0.3767836575832283
Si	3.747736472204454	1.4567630614442215	-1.8841576306801888	14	-1.0212702868792107	0.22685736415475352	1.1020261338797415
Si	-0.4452961043931761	3.0605016205366087	-3.292642926086892	14	0.5228304101941317	0.7331506820402247	0.27669181302252366
Si	2.298699993544088	-1.56727261574868	-0.14076886587616377	14	1.147991583461753	-0.11505182086598624	0.3147835096721135
Si	4.799930982313667	-1.0315840140221424	0.9301911932640102	14	-0.3416585022520253	-0.12379486450714977	0.9498606648279497
Si	-3.187533458493386	4.333940160297561	-1.4465950449620564	14	-0.25523002558365154	-0.16477134132594576	-0.7117364600497754
Si	2.9405235839184125	2.86531672492121	2.8698141549360754	14	0.13761558404507376	-1.1029429900369063	-0.24527856244201846
Si	-1.5858300880439897	0.854560254062718	-1.9529190650801895	14	1.2082675481451763	1.0353342329804205	0.9594318614927331
Si	-3.498025563432406	-4.511192804666202	-3.397005299115249	14	-1.5398684006058465	0.366499236302636	-0.4140448872144103
Si	1.284285282737981	-3.540416739534186	-1.0604333579994099	14	1.2892347400030235	0.35313283107478216	0.03570648224408846
Si	-0.2617724235486413	-5.106524125563217	-1.2523385679243026	14	-0.7449052613428777	-1.9909557163886942	-1.1446848849095104
Si	1.5583887299779637	-0.3601659667885983	1.8309950155628545	14	2.391992096235815	-1.474259706377904	0.6326724003499019
Si	1.3913536441714047	-2.567661963730284	3.8744869111473035	14	-0.32371784354909605	0.49785957821432153	2.3339465654176204
Si	4.239814171821655	2.1737885566077573	4.870005281831468	14	-0.9734158462184865	1.7488344712798176	-0.4682589568845207
Si	-3.6905490585146628	2.0122784035535424	-0.8789835086202007	14	1.177530755374402	-1.7818891154967054	-1.2437613999792887
Si	1.2708256904661304	4.598001427938368	1.1440772332064777	14	2.114612512540152	-1.2119660831482093	-0.6577699878219954
Si	0.8102844972408951	0.10325263043821638	-0.8446003143162043	14	0.3754680229909085	0.8160228058297697	-1.3558592779429568
Si	-2.072680107388349	-1.2619546856361923	-2.5214728917820666	14	-0.391988403114988	0.3053344405100373	-3.637912967573496
Si	-0.27403111580330375	0.4063243226472672	3.135259628289763	14	-1.3074746753652182	-0.212819129106745	2.620984763358952
Si	0.011708775167583778	-3.3547102346485076	1.8282702011674195	14	-2.711063181139808	0.17996143155738062	0.24479545175236264
Si	-1.916320348962305	2.521670069260136	4.493833259863286	14	0.4010623480108546	-0.39982384657813924	-0.11814640322931648
Si	-4.19372517487487	-2.1732168410055155	-3.7738431666375165	14	-1.0270665867129525	0.2852335391171196	-0.35254610484072435
Si	-3.1641912121196927	4.478642667319135	0.8892615085197815	14	-0.1954225162895591	0.03185316670078254	0.5025374472337989
Si	1.808653519203484	0.4233558988811334	4.377010062894205	14	-5.370107245221315	0.13251373975830394	3.7080326660856384
Si	3.0649693253035233	-4.9869632332579235	2.4058605032461573	14	1.1393842941814931	-0.4286662489490284	0.543048296879116
Si	-0.40079146316213665	-2.5901837932605525	-4.343481964889576	14	-1.6362966771958722	0.6537418371169192	-0.36382348699595785
Si	-4.557046972154181	3.8335671348190585	-4.382333854802085	14	0.30529227438278683	-0.4488247431011174	0.7751478876711194
Si	-5.0894757050221795	2.696526858643991	0.6226498146048476	14	-1.3312617704556322	0.017341334052802748	2.2035077076526757
Si	2.1541401677126752	-2.983362620422643	1.9312037806109703	14	3.620660850875302	2.075357904954259	-1.7395710359218561
Si	-4.737846829444878	0.6861191640281148	-3.6211435770757405	14	1.9389777370155166	-1.6599554741308107	0.33034512462230975
Si	-2.5657892731094214	2.1069226021853806	1.6111223106832167	14	-0.4298823817654584	0.16147107053700369	0.08128523758594951
H	2.849922019007802	0.5097424236324064	3.617560693856143	1	4.0775560364658325	0.30584763313193886	-3.788127996129424
H	-0.744332098772188	4.732761830362198	2.524064933403324	1	-0.8124284005922027	0.6246778054674333	0.446404047442198
H	-2.9449595817541807	-1.1752550549398442	-4.071524680551597	1	0.25565297240881596	-0.11747688740394992	-0.27913050641868414
H	1.2043095031279678	-3.3833277216917637	0.5758038146769308	1	-0.23015274984358727	0.10798796610941142	-0.19805789924271086
H	-0.2354487348055425	4.320210068269364	0.36974542336134936	1	0.03720363687201069	-0.11813277637111969	-0.13223220372574773
H	-1.9593734072517763	-5.04424874026595	0.5320631123182115	1	-0.5801017812004301	0.3087123586796478	0.6111918438421927
H	-1.925505450578917	0.24067443339518765	1.811424903154041	1	1.4961146158202265	0.23957945038937822	0.9373710065142665
H	-2.3952129194303957	-0.811554756169967	-0.7686523058034433	1	-0.44402577502106105	0.7594672305446004	-1.1612877975143667
