72
config_type=liquid dft_energy=-6933.407980432582 dft_virial="-87.26417713096728 9.254172960643082 10.383147850481238 9.25417296064308 -81.60849909431393 -18.391307057108364 10.383147850481238 -18.391307057108364 -103.0374148263138" pbc="T T T" Lattice="9.90122247339605 0.37328966375861156 0.0562897112016954 0.3734382899983626 9.984720694888162 -0.14749668032889238 0.056834674080782396 -0.1466049228903864 9.935049805563379" Properties=species:S:1:pos:R:3:Z:I:1:dft_force:R:3
Si	-4.967569490653615	-2.921716419540321	1.906729002290374	14	0.1538857956215028	-2.176355549919252	-2.2449109879546167
Si	4.839233705153421	3.253393708693448	3.2430443681987864	14	0.24501013904659502	-2.157623762109313	-0.35635185493560756
Si	4.373937463097752	3.9796360124047427	-2.2066993602966205	14	1.0675941485428504	-0.3288412851205551	-0.8079701039670659
Si	3.1581223073298603	-0.3121418562002552	-2.36934699950573	14	3.5226639429294546	-1.1091051581577052	-1.0756491644003423
Si	-2.5509048506191583	0.23915150985853906	0.8112892106216119	14	-0.4008808279752521	-1.6890611576864831	-0.9811826411695896
Si	-3.960953694068042	-0.27258944127771906	3.880200103803332	14	0.3974070075772001	-0.407980678206309	-1.02945514355537
Si	-1.1483130810393811	-0.16449654963161178	-4.54876849060005	14	0.18679105861928996	-0.2780017911831391	-0.1374824007894901
Si	-1.9685733714923632	-2.169360485504776	3.85146074324348	14	0.013761069894496547	0.12301993336365716	0.15634994296033275
Si	-2.3972035202014603	1.9546153858965478	-3.1685826220835356	14	0.3663228584776738	-0.08098621803721628	0.8830175829358041
Si	2.690491642468502	3.11847080824749	-3.604722359266452	14	-1.4182787731317876	0.5018550758818316	-0.5508976243109961
Si	-0.9618119211918346	3.4478443906844762	2.517171648403673	14	0.07634820115020116	-0.8312830872364444	-0.035250111049762174
Si	-5.063678153167799	-3.2265062310808936	4.110035720954278	14	0.4041682432375934	-0.4742149223586437	1.3210426552501715
Si	3.7281306894981006	1.6028051863067505	0.5620885852727086	14	0.23873947028128586	1.9713942328919436	-0.06211713320318154
Si	-0.4417627632534956	-2.1206834103031267	-0.8188265426601843	14	-0.5880601234978845	2.4112936409846992	1.5955382301082246
Si	-0.46854223913183074	1.5455167067739288	1.1547050001902723	14	0.11003070928626907	1.959506470333707	4.774357459931932
Si	-4.447940449552972	-3.726938707055297	-0.26167928443839733	14	-0.9336868697010262	0.08485547443350713	-1.1709021887485285
Si	-2.9969153518047373	4.956434412771469	3.492851388605874	14	-0.8509358449720603	0.9746216946136359	3.552881886646623
Si	-2.886829877704368	-2.0008926427470173	1.5944246480679911	14	0.9375101033120865	0.9791540390719928	0.13472926121267553
Si	3.576919344017031	-3.478522828252279	-2.891694909952218	14	-0.48898257998597827	-0.20471320536391416	0.14374664179149887
Si	3.8636639483686355	-0.9396349045377888	3.0141074443775344	14	-1.3689636875386875	1.9077809735029683	1.7560052840177105
Si	-4.453745790477646	-1.2127098581986944	-1.5220248433188857	14	-1.4455725987683516	-0.9149710227440725	1.704777038955888
Si	1.7344900164093333	2.861769511999153	-0.5182963591508756	14	1.9379840048092796	1.039386037854442	1.2176245717367913
Si	-2.015157789238318	-3.7419876092508852	0.2898905264263338	14	-2.598554697656512	0.6286879584352684	-0.6493904984731006
Si	1.1763707425795749	1.369174645834162	-3.0449285631354988	14	-2.061361321812437	2.7545889088835303	-1.2718499542703103
Si	0.7714960211906792	2.8579745886775108	4.15456315154208	14	-0.4812088430505106	0.43685110562518775	0.9000444708079528
Si	-0.04387545681609353	-4.774639750516038	3.841898130977901	14	0.8497361672296793	1.3279314177344443	-0.7078039544626088
Si	1.7824744933337429	5.373957227163175	-4.200384621257313	14	1.3843844059173396	-1.5592830739888166	0.7230092142154326
Si	3.217048648024738	-4.869939886285978	-0.48103080663730813	14	-0.49391987353225864	1.6639306600662915	2.1692952947101256
Si	2.6688764330007153	-0.8943564160184458	-4.475625554652189	14	0.7226353755018831	-1.65230643580337	-1.3114359773319704
Si	-0.9612392147479941	3.533797917657275	-0.7655143104615005	14	-2.7202980772287155	-1.3470856381484835	0.9496223233647721
Si	3.8259346819870452	-4.953769048871935	4.426932625984967	14	-1.3211640114212826	2.1990635521067996	1.5776459081853142
Si	1.4847464098645398	-1.7808653665780387	-2.2362730094822743	14	-0.6806816215508988	-1.8185924152734152	-1.808034942607823
Si	-1.5034921420635343	-3.2251180620016195	-2.428771733524573	14	-1.5182009247413626	0.3658127511821565	-1.463687835522519
Si	-1.6967974111668813	-5.031217191564583	-4.563455735612244	14	0.4195182562199415	-0.47101209646133524	-0.7989347256510015
Si	4.281225405582677	1.6044618734591751	-1.9437062198988244	14	0.4142240932552246	0.3397674542890564	0.5139953209825068
Si	-0.5746722735716265	3.281260137805162	-3.2355100086850093	14	1.223835076637609	-0.4128647498724623	-0.4818148525744694
Si	1.972547637143305	-0.8104687937781863	-0.16978764376674738	14	2.109978095200585	-2.1921745325119955	1.9542565303804962
Si	4.357394371771868	-0.5645042570894615	0.6429026168749172	14	0.670925048192533	-0.6607558124302833	0.07015980775513675
Si	-3.1410233538673067	4.3852489107844015	-1.6662150852341173	14	-0.017317936994389403	-0.4105124456150588	0.15750539769120728
Si	2.2333767794903268	2.481100060016105	2.326520843942278	14	1.2169864233963306	0.12667295980252355	0.12806032823327543
Si	-1.3395623538261727	0.1488065729218979	-1.1382134326275015	14	-2.2090525533861074	-1.327236190855876	-1.6143224684666946
Si	-3.4083167468018987	-4.178354249159821	-3.5084611071461222	14	-1.4494606242334795	0.7995034541478182	1.1039552342014487
Si	1.3731855726242426	-3.489061419492223	-0.7200624246624481	14	1.7328437388516886	-1.0697057973422883	0.7343220776240842
Si	0.0031855557386631	-4.802114797196408	-1.919525721532935	14	1.1670982384273694	-0.7258741968736736	-2.503837491657045
Si	1.9745521096967469	0.22188014995787453	2.0315978330379756	14	0.09916933197183551	-0.8660765699813484	0.1726201545367618
Si	1.9186993596399193	-3.0587379224915634	4.311385632994548	14	1.1135670543302902	0.14556544169497163	-1.9397009889420744
Si	3.987767849402319	1.5964608275525798	4.7317313550999245	14	-0.21405248832882007	0.3030330441379728	-0.5500478740026872
Si	-3.5464370930856997	1.7048935778669176	-1.035330386105466	14	0.5776080661504185	0.4529261703078176	0.9705488066759894
Si	1.3792009719677647	4.5040736077821295	1.659018602705374	14	-0.41918761207577043	0.5074737123379512	-1.3204222475364198
Si	0.8510259220814392	0.8342291753063796	-0.7852806095067852	14	-0.231310261458718	2.2117319022402335	-0.4458882837149763
Si	-2.610619901226315	-1.03467147644257	-2.674969117988908	14	1.099551702119631	-0.417077505939525	-1.7165313611480093
Si	-0.06795588018055056	-0.12115911980341686	3.141026326392102	14	-0.7253957141735942	-0.25452965649444326	-0.1128928637286579
Si	-0.33836150657552827	-2.5170101412231434	1.927050172630729	14	0.06889276705336778	0.5659468179708869	0.8800096468217627
Si	-2.5360699702088114	2.310139259796923	4.445139340354465	14	0.7095096257319952	0.4685343222643085	-0.36404563049561867
Si	-4.626195825619133	-2.135228964966758	-3.7186542804515765	14	-0.503579001998991	0.0077598529667389175	-0.495055530752168
Si	-2.6770845648013637	4.633395280672671	1.4632382112893734	14	0.5521556661441446	-0.38499371109152514	-3.3742417461132663
Si	1.7200742619950848	0.8119837905820483	4.6967685184609	14	-0.6174260029119557	-0.36706847902051676	-1.2757413221723544
Si	3.3486056595611355	-4.997600908657702	1.9339731828783304	14	-0.6349411436844005	1.3328589410805078	0.5006353435179534
Si	0.19106002204150882	-2.628926690597245	-4.17300073200399	14	-2.2181262411714417	1.8410132249967022	0.9259815241670745
Si	-4.148607202694458	3.747640360569415	-4.129900113317799	14	0.26976216996366054	0.17043291524091184	-0.41021419739792164
Si	-4.4971020462962095	3.2730222807565634	0.9030827579750261	14	0.4868411063648269	-1.3912916803599173	-1.4686436410271044
Si	2.0203953779271435	-2.5914689148135994	1.3502297544739013	14	0.19144604480141805	-0.6455765208411931	1.6066760012445742
Si	-4.094964029401929	0.7178994174532719	-3.9168681788331003	14	-0.8682211289288838	-1.2020246473173248	0.23511858265892133
Si	-3.131391382689844	1.6438507995179854	2.322921116415509	14	-0.8124016610968731	0.9254914714930542	1.4206205358573785
H	-0.5014342168303254	0.9291835073584985	-0.1248856750547736	1	-0.2717126104595249	-0.41955245192069945	-1.2017456823900887
H	-0.5331441205020004	0.08866149706106154	-2.4360395566483968	1	0.7727385048756088	0.11714315793339469	-1.2590692468343863
H	0.5185728039568124	3.629609327691958	-1.1772208846709507	1	1.6797766392648965	-0.20981633520334408	-0.4706457139532141
H	-0.8611315155429089	-4.919760392692111	-0.6079348260279003	1	-0.36389522083439	-0.03868125109949979	0.9767531409240388
H	-0.6085759005420263	-3.750689180167507	0.6087958673768578	1	2.093900202302103	-0.5809921549727973	1.0615155413449564
H	3.5092032475032786	0.10565244878939585	-0.8578924543579354	1	-0.3430337864877725	0.3212997189954968	0.8817225171860456
H	4.373937463097752	2.8204563715563666	-3.365879001144996	1	0.6158231758553755	-0.6405327835346585	-0.9527027646488415
H	1.797719582165802	0.32393188037890286	-2.177079141555845	1	-0.6312588066448844	-0.24813248934738283	0.5667266342144879
