72
config_type=liquid dft_energy=-6924.574125761307 dft_virial="-18.747158210664036 2.8316135208075175 -16.372577047600892 2.8316135208075175 -21.297266293730456 6.241693117600664 -16.372577047600895 6.241693117600664 -32.84119712690169" pbc="T T T" Lattice="10.6334943088 0.0 0.0 0.0 10.6334943088 0.0 0.0 0.0 10.6334943088" Properties=species:S:1:pos:R:3:Z:I:1:dft_force:R:3
Si	33.476281715009684	28.092703048878878	-9.103568414638474	14	-0.40646861116752997	0.2559766745686226	2.059314721977599
Si	26.970210122653334	2.2854462982960753	10.47239687002168	14	0.577323187680946	0.09079832727049739	1.7517503618233974
Si	4.982972401541077	-7.787801095856179	8.42925600654023	14	0.14512629690629034	-0.4786881313946374	-0.35977939543789694
Si	31.033810606255567	6.0849745842335645	43.218338295420054	14	-0.442411120880008	-0.3144952887657249	0.06245471933171699
Si	21.92120372145461	8.658907583127384	-7.18407382297975	14	-1.7698586565932004	0.718536262289971	-0.10278790559941192
Si	24.08053677724832	15.485929934206247	2.6142233088298625	14	-0.7245045690696308	-2.6345337170645364	-2.3174529247888707
Si	1.5367313305191583	-5.816851025237173	0.4863547626958944	14	-1.3157369223115138	-1.308671524891747	-0.7057367857852098
Si	16.782163523943275	5.86073545624959	7.071380050295088	14	-0.13306884139692393	-0.8791668384978184	-0.40334677508780614
Si	24.862991822467055	10.71689280466392	0.7034800829872815	14	1.228005409466889	1.7157438315884477	-1.0933491676453058
Si	27.801951413993365	3.559998193137461	5.875207642003867	14	-1.8806838374233952	0.9436753567592697	-1.033709294418087
Si	20.28533632349451	-10.815880003184537	4.917937950348455	14	1.9769313653094147	-0.8579768168912858	0.23186227777095375
Si	10.994224969731732	13.610979050207089	18.47808889775948	14	-2.528111296984563	1.1690479075916376	-0.943284034529543
Si	8.88383788824143	20.118156525971557	-1.075950121635928	14	-0.398778435154967	-0.23715849761992677	-0.42347415886552137
Si	28.2174233036268	25.873482153138013	14.024111571092584	14	-0.8698681789969709	-2.2044767572478396	1.420300176134488
Si	7.220972048231285	-4.177208736797447	-11.398691192755555	14	-0.04345707923167484	-0.5723992638823305	-0.25334026317334274
Si	23.412657633206898	-11.956885843001704	22.808621988995515	14	-0.28313654561800683	-0.17353109715169027	0.843339257193151
Si	13.837483112478838	30.175421778177682	-2.8210979406075665	14	0.9663195955348777	0.4668821299855814	0.19414930493502175
Si	-0.22216559659375837	25.864783954793413	34.58126127610864	14	0.13311152174523835	0.35269342917556884	0.016192821306292602
Si	38.88255225799547	1.6558583672606446	2.840769905078846	14	2.0545489211561727	1.4881398184487233	-1.649231908061537
Si	18.340193743562963	-2.9442231712091615	15.171380539057635	14	-1.4686336137163558	1.2765959575807715	1.2165228531071077
Si	12.198776571538286	12.454108036881191	-11.105972361422909	14	0.21427566027060888	-0.3824835409674646	2.0163602938360135
Si	12.47786326316705	1.9400385026633247	-16.57238594821927	14	0.11092982481672484	-0.10885031483378907	-0.5257640413644206
Si	34.35095042287434	21.04270695563879	5.784099862766068	14	0.027385099875429204	-0.03022411436993671	-1.8815413010476647
Si	20.694779021854853	-22.615932438625748	-3.368052987369312	14	-0.517315646392946	0.6998222151067413	-0.17148398309578836
Si	19.87212936814885	13.300406581929966	-7.0704974702674575	14	-0.3089638127799583	-0.20951268766503456	-0.16575967421101068
Si	53.70694061076835	-9.808133114045253	-8.637427924623609	14	-0.21543959964903991	-0.27869573250904706	-0.04212576089690217
Si	12.149947565672276	31.8645948831078	7.76634270434102	14	-1.5213631271746124	-1.3260611957245685	1.5961977186228427
Si	6.810742471292091	-5.847943362596103	32.86812027500649	14	-0.3816499886226726	-1.0110509145632178	-0.31848435866993463
Si	7.785068287818817	0.8873331995864335	10.395867611481245	14	-0.5529051433449678	-0.7493332189252367	0.8924764222980969
Si	21.149669274891007	28.060845099929715	18.066168595225186	14	-2.783144118790159	-0.6211335367836093	-3.3367169781867694
Si	31.228765090913104	26.060748621410287	-1.5813920066161182	14	-0.3999590867179791	-0.6626376044140997	0.45626629322922196
Si	29.110764427497703	17.077997969108402	-7.964976378029404	14	1.7801561905109256	1.1537680857845296	-2.102006383155466
Si	24.892797507014624	25.048875936479188	5.226404986752435	14	-0.04289914937720272	-0.9368986944669553	-0.34046602360454065
Si	25.815508342166435	15.535333148764932	9.05938624578541	14	-0.863619621737415	1.552831913630033	0.42125272386891344
Si	2.3033956366893293	2.0619621484080257	-13.264635507075162	14	3.1675896702274287	0.1697862822528946	-0.5207750686012053
Si	7.681689456148663	4.010730749898875	19.595626615637123	14	-0.7339484960210667	-0.10436013650268249	-0.5390720825015071
Si	4.885782263558645	7.312994307979642	30.223463905464843	14	1.2796537731380238	0.5355766648187658	-0.4266217059984466
Si	1.0684322411596063	26.749905387563615	-15.548539948696462	14	-0.7918649573521903	-0.8904982138647749	-1.0203449460744893
Si	10.858233211016486	19.300834252914264	10.815805568724375	14	-19.098413287512685	18.95799005645801	-22.0775725623687
Si	25.710598287315815	-10.828470060446156	25.882031482562283	14	0.6968908979312404	-1.2209659802108557	0.3466559596627971
Si	17.965139765797275	10.161388428477897	3.431311645012363	14	-2.1026681856648723	-3.8453893398249743	-1.6001312526521372
Si	5.666599750653828	-0.7061065560815553	-0.5528460026088208	14	0.07395295943395121	0.05640362296074849	0.9726748536652196
Si	19.552295126328765	-0.620251723032304	22.960914894486148	14	0.656412958434021	0.03473640420679659	-1.0594044067665829
Si	26.36124053708267	0.0283169953443344	-2.6421149644018445	14	-0.14368519237434732	-1.2907321517414778	-0.6913949031988919
Si	29.77021121055224	-7.554363995295093	17.3379124704984	14	2.2818994233113306	-0.6747002021341064	0.9315345974375304
Si	5.402718955886648	-4.005126898398137	-5.754485581116061	14	0.3552046277417575	0.15843150982752463	-0.18614031186276048
Si	44.987698580932836	17.513397027076525	28.144232962299323	14	0.5675714994226885	0.5965964502713081	0.1554760242620144
Si	35.004942223348465	27.353451891036794	-16.977277511015448	14	0.401520776089437	1.4202731795286263	3.0191595029847482
Si	5.687717870351105	-24.236817243104753	-8.201358956514028	14	-0.015179805810154257	0.2772574561929562	0.5375327617463345
Si	13.446691563136126	-23.52776520909966	-6.714519981291759	14	1.3342704779012693	1.3339051238352764	0.2095929061510232
Si	5.084384036764102	12.704473660381888	-17.46597164245928	14	-0.4225015097229094	2.161459594136442	1.9576161937023342
Si	14.087402129218562	14.10888178772234	0.5081853265118608	14	0.7022912475456794	-0.7226621149972127	0.042384414092109066
Si	9.187275281837348	13.999835303585595	22.005984571578676	14	-0.5095334248099218	1.4892150546936092	2.159667533728299
Si	-3.18419987077016	11.065682051486865	-4.932261267182409	14	-1.980587477074665	-0.19654943175137995	1.6889765683214502
Si	34.013560281950426	16.34359568467113	-1.714597789822456	14	2.4566728785537166	-1.4310221995405699	-0.24794017066943574
Si	18.173205348937564	7.6949919575289725	-2.8085716843118	14	0.033971500374052534	0.2544679499667597	-0.42366827731719253
Si	3.0855529440674223	7.219345123602039	-10.841942697735407	14	-0.3784330216461033	1.0604079091730365	-0.04524656853449791
Si	-7.265515755890849	-20.196504112038795	34.816070097435556	14	-1.7740287323119488	-0.40769091463672835	-1.4136101600914626
Si	15.356148136167343	-8.877936298900046	-14.762809787230612	14	-0.10552870387068977	0.13191132978179326	-1.8730777365548013
Si	30.68859421352037	-8.378598039653106	-1.1411972427147248	14	0.8130290107949892	-0.7745470203578009	-1.3504879818186355
Si	5.611518250134244	19.301886968850834	-4.359147824421016	14	0.04839334433582714	0.6757692677262239	0.3045376549713234
Si	7.1775023234969115	8.319858617091295	0.611638592642176	14	0.21675060625178344	1.097295814311733	0.5318349352463543
Si	15.034293530428585	16.659219062744928	11.94530596769942	14	0.9841496967090406	-0.526691439053398	-0.07356343697794877
Si	31.19165419577539	-3.5940360084199297	-16.802941371822673	14	1.3058271110760673	-1.3839159505280085	0.06441133048034967
H	20.949552228746548	-23.34181516742281	-1.907336254266041	1	-0.02443038564151503	0.036147169695961844	0.3801088680937758
H	19.252774048686778	-2.031642866085344	16.08396084418145	1	0.337763791913065	0.46879786055962375	0.16086428968144875
H	32.64187035324872	29.422961693705208	-9.83453289036571	1	17.322928024036873	-18.506501391134687	21.61537807160281
H	18.81012188425062	11.006370546931242	4.276293763465707	1	1.729135690758971	1.690551884551105	0.035843007936588324
H	32.52745182778717	16.836798417701893	-1.8003250209400017	1	1.257726872746737	-0.5133489451050216	0.7695248803359557
H	-2.2511373289087317	11.998744593348295	-3.9991987253209813	1	0.4914045611975577	0.9461554449510846	0.7007472988009306
H	22.191384861599754	29.102560686638462	18.066168595225186	1	1.7811152127953407	1.1848103258673375	-0.20676931828843656
H	21.149669274891007	28.060845099929715	19.539376494093005	1	-1.5774592459390715	1.8450969115766938	2.1627001524534135
