72
config_type=liquid dft_energy=-6917.025555664947 dft_virial="-116.02857127134702 -9.3148127963971 -3.3382616042751647 -9.314812796397101 -116.47880018561764 -4.433156104046492 -3.338261604275165 -4.433156104046492 -144.54162890351347" pbc="T T T" Lattice="9.799987616100001 0.0 0.0 0.0 9.799987616100001 0.0 0.0 0.0 9.799987616100001" Properties=species:S:1:pos:R:3:Z:I:1:dft_force:R:3
Si	32.33139394395353	24.819291836733004	-8.928964716781033	14	0.49904305799318566	-0.20845802026270985	0.30179222871046923
Si	25.1018450796804	6.20502875892319	12.955260228892868	14	0.6923428697304305	-4.3319386257359636	-1.3962901662128173
Si	2.6855102064151155	-7.565698239492978	7.613571178997627	14	-0.993233668915656	-1.0305419497741966	-1.8498174609444855
Si	28.989529566950118	6.4742540187126885	39.290110350468126	14	-0.6420813602689838	2.0151295057192584	-0.5898480701375155
Si	19.275968041636503	8.663424252335188	-6.149061029647642	14	-2.23858066954588	-0.7909018212992629	-1.9819625041998803
Si	23.974170304683387	13.582871035803146	2.9993058098826375	14	-2.3588004121053636	-0.8412332648254177	-0.41263772127269327
Si	1.156672938353051	-8.67165624193271	-0.1769191764334533	14	0.43593296391536296	-1.283668296984903	1.8269842459278465
Si	16.574464255431913	5.127059521115037	5.484190669820954	14	0.631737803566028	1.8587291690946508	-2.1538254682198588
Si	23.59667478171122	10.196524515010255	0.2945092278390372	14	-1.3968190425771716	-4.2944418828574555	-1.7329337275378938
Si	25.190084168175765	2.253222952681328	5.951414879406138	14	-0.05688827631359639	2.5449291539941834	0.8734597560186856
Si	18.15662325611318	-9.069133939654112	5.289278716124341	14	-0.7122979894516958	-3.544890891311603	-0.6445025701489672
Si	9.603145064843016	11.475324899035144	17.680040058354617	14	-1.5505675411745787	-0.8453714588381961	-1.8146560530282685
Si	9.281401671418838	18.572730730292783	-1.2125230677772048	14	-0.6347565383224139	0.2708885712044174	0.17152332100718662
Si	26.058441470863155	23.661746699482123	12.270584094094044	14	0.844489826823917	-0.3238453703729754	-1.0316650085780372
Si	9.183039195716042	-5.575124754910746	-10.80625034452115	14	-3.0364291031991186	-2.053273395806847	-4.009377779580934
Si	21.872053361054704	-11.233059405177535	21.31796206124041	14	1.820671925256351	-0.17251731032395587	1.0218858094928542
Si	12.075407540731796	29.185392119445492	-2.1059977387246582	14	0.30573733271370446	-0.1409289674711486	0.6955351540959263
Si	1.278584784297335	23.47427293638613	31.4844986141454	14	0.892670540749768	0.4875155072903017	-0.5673244162014223
Si	35.906135426678325	1.7118226368298837	3.9372528246319525	14	0.1290126656438583	0.09649743932313762	-1.0430094965821266
Si	18.23253396018749	-6.062331139245157	13.52311071132017	14	0.09482364975972123	-2.648369863234381	1.136619327520206
Si	12.118498086279788	7.634915552025492	-10.259195435815215	14	-0.9119255484923571	-0.19456890932326992	-0.5229954751556852
Si	10.681770901821446	2.761999109758776	-15.615192467629964	14	-0.19866030921922154	-0.9969957102200965	0.8978695728176395
Si	31.134139256882207	17.363745458044992	4.674407893114995	14	0.043312068891618496	-0.29780135903253546	-0.5664538399400201
Si	17.241970811927334	-21.764508296955622	-4.5383546650406785	14	0.5064686672683053	-0.15070893788792786	1.5018265833994675
Si	18.137924879741657	10.815423132929817	-7.264378020260751	14	0.2228256139022293	-0.5685798869292505	1.526995133378397
Si	51.03550330822775	-9.107647890985383	-7.268974214452702	14	0.20787412224450422	0.9429875860861301	-2.021684538732976
Si	10.234107467517997	28.864422925042984	6.492472195691019	14	-1.3564999973887375	-0.31248288463164503	-0.45492957557327696
Si	6.449117050477392	-3.816262177523582	29.848018282108097	14	-0.2868602774531773	-0.9174236001089617	1.5111383555374478
Si	5.8518274052513295	1.7462107933747788	9.933992646762553	14	1.6811516663901116	1.5612157738579717	-1.3932349217608853
Si	19.541851505648914	26.510299299866293	16.913935826453617	14	-0.5593249362188455	0.1079843665619632	-0.6380604086588041
Si	28.956699608436185	22.24675588755629	1.0080561261548944	14	0.5105654664854293	-0.8293352178459003	1.0809122169906855
Si	26.646215328113986	18.01390603645991	-8.087469180149375	14	1.4801449664557227	-1.0545185353267055	-0.1557860995636243
Si	23.42788959499913	23.897946001005366	7.703348865548718	14	1.304227112235339	3.036852050024283	-2.6856832863035622
Si	25.111811667085973	13.79275737057716	9.534633351418861	14	-0.197192465191949	0.022577132926752296	-0.28007410207117844
Si	1.0669540517276555	3.439001854254196	-13.302767789759775	14	1.149035966442797	1.3782651752553872	0.19344842162474937
Si	6.77699523614925	4.117229597201629	17.151124926726084	14	0.3687975473483164	-2.1959635704222973	2.5951063312011295
Si	7.366307691455807	7.402381445870671	28.436183066194648	14	1.0229291640317701	0.25228996665006226	-1.4393335545984802
Si	-0.38907910833440223	24.971358244572027	-14.246173397611258	14	0.4689528982104287	0.14063174769613948	0.37050784660727887
Si	10.089479250279593	18.722464741079175	10.754898409412785	14	-1.9731461840570923	0.3518660474835452	0.4180524690769251
Si	23.119748584386095	-10.127395402366286	25.143240227370807	14	-0.6687583777392441	-1.7876018544075423	-0.8502987250737278
Si	15.380414164311055	9.880308314601557	1.6318939378329722	14	2.239516294771881	-0.9772665906564724	2.4935921511773187
Si	4.225382260532909	1.085427028384004	3.179184582576153	14	0.9771269796375883	-0.1636853064387152	0.5156254017554807
Si	17.94410072467043	0.8610367119381621	19.87993147842913	14	-0.30091213935938255	-0.8513140545646541	-0.513861880616391
Si	24.130362507308792	0.9285684266007074	-2.131977505894939	14	0.5751310632849879	-0.0655004506939644	1.1079414758898063
Si	28.37530554312344	-7.071279064273116	15.662791007481363	14	-1.1525259848043659	2.7250862466664274	1.029125270742795
Si	4.448028179183084	-4.938938958836382	-4.625270755207869	14	0.8998503523562815	-0.18585337650903194	1.1024238838727685
Si	41.787156995038025	17.112375775692026	26.425764606689814	14	-1.6524301059692694	-1.2004431604349017	-1.5454757241985573
Si	31.73751469441787	24.54688158096827	-15.083915538985952	14	-2.150347276942762	0.11094396589598565	-0.32904003156180256
Si	5.7676259116537985	-21.271941319395204	-6.018515394613574	14	-0.31366302197359297	4.688500282865696	0.9862410337764491
Si	13.11625442545016	-22.715802894838067	-6.852131741201888	14	-1.0504507895996993	-0.06563260550742002	0.42347235909179726
Si	3.218462932941482	11.701302813474795	-14.281463153016835	14	0.3970012871576807	3.088115262118459	30.564541055629856
Si	11.611623126799863	13.260118243654508	-0.5550908985511362	14	2.1412908155630723	0.45676200233494646	3.857880797912381
Si	8.604232327133943	14.665740267419347	21.229762172695512	14	-1.811056505580061	1.378504288050161	1.7526409927062967
Si	-4.0258741126443445	9.764423461041174	-3.8016503959879766	14	2.1189689933946108	-2.190188867873245	-0.6872284270275919
Si	30.832436838132956	15.21996876706027	-1.4280345954428597	14	16.25565783476436	4.354877256070728	-7.985297251409717
Si	18.454905479184415	6.570636896917033	-6.366042555455712	14	0.6128365799154915	1.8418817443738487	-0.05055204436262348
Si	4.256585421102571	6.530897947133746	-11.375335625388075	14	0.7149428854945321	-0.9722837885460254	2.386138203642902
Si	-6.241435712917	-17.34637987998926	30.463428104436325	14	-1.821699338942282	4.863469142112412	2.0922883763769025
Si	10.781573975703811	-9.50267559180276	-15.172340827246021	14	1.8844003701636691	2.706086806792661	1.975618301822415
Si	26.969340519792034	-9.034079383951322	-1.8964936034676723	14	-0.6719280363779226	-0.05122927350395047	-0.8890923334757179
Si	4.980000906947841	17.028909281165703	-3.496419981696926	14	1.6775485193944562	0.39758724206014245	-2.243309446450696
Si	5.660933446477317	8.960775476582894	-0.9761571664644889	14	-0.11900155285879772	-0.4224158919157484	-0.43246814238593134
Si	14.22705362177225	17.114864972546517	10.520227905957654	14	0.45917164224098933	0.15027519242041887	0.2709644188113618
Si	30.196799841365095	-3.5335619347619454	-17.579590185289593	14	0.7611641600558982	-0.01184816753630638	0.9230103548591113
H	10.227010316486421	-4.5311536341403675	-10.80625034452115	1	-13.816059409531215	-0.7860077223223609	6.45113413350928
H	9.183039195716042	-5.575124754910746	-9.329852810192834	1	0.7890840498379181	-0.7398684660207077	-0.4475469037570038
H	3.203260212152626	1.8435883703221563	4.346319987708153	1	-0.9886262481819504	-0.735359518620764	-30.520245281842747
H	3.648319789746476	-6.602888656161617	8.576380762328986	1	0.7237548347582756	-1.7354438976619544	2.4492336424204
H	17.910125147604177	5.182059991612876	-6.510011233527553	1	-1.2971997671743103	0.3525504757197686	-0.3587676654944187
H	22.47435765994393	10.420612991837523	-0.6532358145288546	1	-1.0935533134077258	0.07874421419804715	-0.44033906710250076
H	42.683548142300026	18.00876692295403	27.32215575395182	1	1.0496419198659805	1.1371312345894475	0.6021556941945323
H	10.517488809418953	12.389668643611081	18.594383802930555	1	-1.5775605474886853	-0.42817208250649597	-0.42807489472539434
