72
config_type=liquid dft_energy=-6929.66402853978 dft_virial="-91.76297101017084 10.30122064555678 -0.46995605462162554 10.30122064555678 -93.66980419731377 -26.36705550134779 -0.4699560546216255 -26.36705550134779 -87.23086606962437" pbc="T T T" Lattice="9.90122247339605 0.37328966375861156 0.0562897112016954 0.3734382899983626 9.984720694888162 -0.14749668032889238 0.056834674080782396 -0.1466049228903864 9.935049805563379" Properties=species:S:1:pos:R:3:Z:I:1:dft_force:R:3
Si	-4.991157465743697	-5.013032275710248	1.9287762186950375	14	0.11405268933857671	0.9640228271523895	0.2511028873237499
Si	5.9791147241909295	3.556920197196137	3.8235576529926276	14	0.5141488159701196	0.18731556410460018	-0.3557111354898267
Si	3.530591554245046	3.825469977277424	-2.230217976474819	14	2.221385888496325	1.1666115281902651	0.9035326893957976
Si	2.996267341399423	-1.4924987545299517	-1.607410618055835	14	0.6376238349754431	0.5698834373265657	0.6943339336903531
Si	-3.377035877542305	-1.1746853210207986	-0.12919781769074928	14	0.3180254163702882	-0.5703038130464098	-0.41491957724432466
Si	-3.2705164423543613	-0.31576239140058954	3.898324578320167	14	0.56912727525191	1.042743130070959	1.104949223518218
Si	-0.25213648900478475	1.077703727058476	-3.412060146360427	14	0.6939348981446661	-0.8285212059015414	1.2604262762223604
Si	-0.7491247995833586	-1.9050911411283178	1.4670569148093755	14	-1.4339902835221485	-0.9556579931038196	-1.7148385454052233
Si	-3.237373781731487	2.053026764285275	-4.0914653677181905	14	0.4022867083643091	0.11860817374481507	0.5508040360773427
Si	2.454113498243717	4.126872101393271	-4.700498046237051	14	-3.387939566816888	-1.07956650046612	-1.6194713639808231
Si	-0.3745331699645283	3.2829485318887333	1.2441403445396375	14	-1.6668313810884827	1.1203707132284662	1.5619027731995154
Si	-5.917035525530133	-1.8149037480058128	4.557090569184507	14	0.13465624182158334	-0.017124589874314266	-1.1123972014096228
Si	3.3046776881403295	1.050000786810488	0.813495814861115	14	-1.242811633674026	-0.5896824909548979	-0.8678670877262995
Si	-0.973828848096502	-0.5214254369184332	-1.1768334656059998	14	-0.24072256381471607	-0.7226281764069867	0.15165690441946647
Si	-0.06574134920826065	0.9789306914863547	1.0468925167164953	14	-0.3689602983150817	-0.9080989724443806	-0.0048817576713651575
Si	-5.307993929436887	-3.1290718225081298	0.24477453592911855	14	0.39333283408689346	-1.1390438798371056	0.12824184826887788
Si	-2.610698177712584	5.39640969778156	3.924898949987646	14	0.7049011765561617	-3.142749450397882	-3.1665635420941576
Si	-2.951236563279665	-2.249062792833647	2.835832251479407	14	2.284061465775043	-2.106916680095885	0.1676388950895069
Si	4.035836547862587	-3.8292193218855424	-1.9986077620212455	14	0.464774080733592	0.027161670823108337	0.7464222134817651
Si	4.824397833901476	1.2396666947231323	3.285534628460401	14	-0.9809134464425703	0.5574822250358954	0.23065411538101616
Si	-3.6536818243236278	-1.4594304070269528	-2.763018274942195	14	0.5498041332183372	0.05229602510127991	-0.3969318673140367
Si	1.0790641525729967	2.9226765450491126	-0.47332701321021464	14	2.356930190095488	-0.707266593450698	0.2979625673361087
Si	-1.6446464453214522	-3.4176524563414583	-0.25201461548818893	14	-0.2264704128040712	-0.7222455959353486	1.2137797408410418
Si	1.7307941772475253	2.3520112349011733	-3.181191081422412	14	0.02626024129786442	-0.896040488492886	-0.6759775272571559
Si	0.8207240043210053	2.687297169155454	4.114196264825708	14	-0.011232387812130913	-0.3401477207659063	-0.06173172451569135
Si	0.683299228839239	-4.533787956474748	3.8404752824426844	14	0.8070365356253201	-1.0513681599779279	-1.306311507318383
Si	0.9536493681047097	6.338448384036921	-4.10028187626022	14	1.3654309888288039	0.14759712911895265	2.6996047931700358
Si	2.661534296757016	-4.965675001517589	0.17618253544243373	14	1.0910943082795361	-0.6488819338407754	-0.6229317678445209
Si	2.460505417394608	-2.0145543667049295	-3.6632741618371574	14	0.21960813270459598	0.02261801350134265	-1.0981507068306824
Si	-0.8661630091792795	3.919051002874243	-1.1730266521851773	14	-0.8961279060737711	2.1913646343361486	3.0078438113602446
Si	3.232761414091214	-4.001744660988503	4.998323232182891	14	0.36607423259321553	2.1673564241882013	-1.117591348377386
Si	0.28215403522649507	-1.5447646580007885	-3.026895246045711	14	-0.9452059357563536	0.3078284126705809	0.38822507625788727
Si	-1.7814331188138877	-3.5400382380436195	-2.7421937570698836	14	1.1924205405044437	-4.138071371054562	-6.835823168620366
Si	-1.1457943616964008	-4.835234668462521	-4.704470330204796	14	-1.2917999317809354	-2.3369622148476217	0.48264146293489707
Si	3.492171671269413	1.6428966190587837	-1.6851897018423283	14	-3.9574702484935287	0.40317965324199656	1.4044056030453327
Si	-0.8764152471973035	3.1220388288431127	-3.0965286210522507	14	-1.2094206888812629	1.0468761818730972	-3.4567194623467
Si	2.767176837130428	-1.3136587819207703	1.182872645147882	14	0.6252200515794526	1.0570754995675928	0.9018676415904697
Si	5.246793607273818	-0.8608877685097173	1.9896049752587281	14	-1.724780495457172	0.548308521253607	-1.167390058881206
Si	-4.1111206925044605	3.217646125508537	-0.5155804623298256	14	-1.1681912152989644	-0.16689944519943234	-1.722192677952443
Si	2.0650585538139175	3.0174010018504167	1.8942671875080517	14	-0.5005551250319646	-1.5673206063301315	-0.5374890529558919
Si	-2.4232824710697694	1.2132082515226594	-0.5953729362441458	14	1.6076057129283399	0.9296828873859597	0.38502250747111083
Si	-3.2859676262388753	-5.219273972721523	-2.33546715273369	14	-1.3992595357470563	-0.7755255830426493	0.2532546453661818
Si	1.188631416517434	-1.9582547470872504	-0.3082795556499258	14	-1.6917255941297524	-0.9468732975564699	0.046788974616054746
Si	0.9803604759127593	-5.551980746295325	-2.078398254252369	14	-1.2688877838309678	2.218064534643758	-0.4889586687065009
Si	2.433012535565468	0.6436061144097387	3.229759164048244	14	-0.19572410694361245	-0.01994046442094044	-0.39730570602758625
Si	0.8743513241479611	-2.2555656862435525	3.31764185961301	14	2.003872949517118	0.45736158409560507	-0.23972420361890256
Si	4.16554563981808	2.5186252130284372	5.297761508250829	14	0.8911854703168506	-1.4434774050429628	-0.010606837887738883
Si	-4.441807140059248	0.7714851219330974	-1.3943737293631449	14	3.098648052172978	-1.3603170603470296	-0.19137688206830608
Si	1.4224046381801836	6.09073303024393	1.2174312184147844	14	-0.012898721170118883	0.6147240283310121	-0.32703225541729897
Si	1.2006196090157497	0.4188247802519246	-1.3057479025996237	14	1.0591475533451	0.3085346953020256	0.005363325697828892
Si	-1.7379866964098754	-0.24133631558287874	-4.250416176923893	14	-2.4507567652120557	-2.105036687885792	0.46725545447806693
Si	-0.059424734018843156	0.14336090749742122	3.1280621549194216	14	3.297010884506658	6.454370640886283	4.030174422073484
Si	-1.1864664276250612	-4.395576452763899	2.1383481343183326	14	-0.687387321336377	-0.5011395372712344	0.020886631178754937
Si	-1.2685209929083914	1.4809247338197422	4.2195474977692085	14	-2.2088520071711355	2.4398074560956733	0.6316390731217344
Si	-4.0083912264301675	-2.9739516069216094	-4.804594873717053	14	-2.2630938447787035	3.1671546392072596	2.489635220089611
Si	-2.6281597792001294	4.595521351417723	0.40123536019819295	14	1.1999813899194032	1.182702276615348	0.83877580236042
Si	1.5890998653185118	0.09461942759187995	5.354193900642686	14	0.8396435504059699	-0.5836676471689435	-0.2531754553223213
Si	3.903499743988297	-6.746159884921865	1.8445200033801952	14	-1.1866532941608197	3.1618550769213702	0.9097161976907537
Si	-0.9439193036090109	-2.2775851590834626	-5.28544138381707	14	-1.7204085879707922	0.40577441273108994	0.7854567344522532
Si	-4.6608554647290665	4.3853846560833745	-4.166778246766415	14	2.2879510339033633	0.3195907052891943	1.0622459923664105
Si	-4.33840588338128	1.343584179873835	1.0009353017022895	14	1.9637729625019607	-3.0739739257471133	-0.9313101399430813
Si	3.156768817706528	-3.016794606792233	2.711099166030778	14	0.14366462353178616	-0.3542880286951247	0.6148104174697692
Si	-5.064854282145029	0.09089188149892487	-4.083933980729207	14	0.7440485690502043	0.20739615376548864	0.005305990049189591
Si	-2.478677452308164	2.2179335223385994	2.10110338947833	14	1.0881704473094636	0.011430620032314329	0.2647400299418153
H	-6.172902533152668	0.2567339940210823	-2.8385917453307834	1	-0.3175248221644553	-1.2448186384869335	-1.1118927505458098
H	1.3141660928191203	4.209141679303442	2.548937039204855	1	-0.01214564442184751	1.0094077211531114	0.20647698361353573
H	-5.508249952352589	-1.938317032445453	-0.8195974174236927	1	0.2944625216637911	0.9884760956312538	-0.7969791429444968
H	-1.9324274699849202	-2.803422813639304	-1.7533913107392671	1	-1.1258541095447459	5.412310653498887	5.754321911400836
H	-0.17472302576807894	-0.9349095809553053	2.5696981432148727	1	-0.9320927844025345	-6.849156406589592	-3.199537967825057
H	-0.0700079131307127	1.5432665055040986	-0.35870942963903846	1	-0.26312923245874253	0.49040311567536005	-1.4563085061431618
H	3.7039254200922525	-5.213921446407291	4.159649141466359	1	0.08258698820954048	-0.5599893098335718	-0.6728418072087033
H	3.501440994421883	4.928047791820627	-4.006280733825704	1	0.33587531505541623	0.9759558411642606	1.413074598853276
