72
config_type=liquid dft_energy=-6925.631598433707 dft_virial="-107.22830646283423 11.843432755838093 2.3119677169891464 11.84343275583809 -103.52897805586055 -1.0722560556596856 2.3119677169891464 -1.0722560556596856 -97.9723329042807" pbc="T T T" Lattice="9.90122247339605 0.37328966375861156 0.0562897112016954 0.3734382899983626 9.984720694888162 -0.14749668032889238 0.056834674080782396 -0.1466049228903864 9.935049805563379" Properties=species:S:1:pos:R:3:Z:I:1:dft_force:R:3
Si	-4.532266023779697	-4.367530681322886	2.1136950045100344	14	-1.3517689064891332	0.3339932659610678	0.246155566466721
Si	6.442614570428808	3.52343272369704	3.6160902849242063	14	-1.8434758296723404	1.3754554713615292	-0.07850381585061332
Si	3.882823852355736	3.8520800192424427	-2.6425309457424526	14	-0.05538083726439358	-2.4806186108423836	-3.937659624891255
Si	3.323016184442406	-1.0444401837606039	-1.5277449718661025	14	-0.4861682481025441	0.36682756645201886	-1.773860839134543
Si	-3.1823701829244366	-1.281464356707507	-0.0642114897804237	14	0.649827072156462	0.3186136852675381	5.651049609559108
Si	-3.174738720934022	-0.05405040918944699	4.139266538946907	14	0.4366222772516946	0.22492209318027806	-2.2976019348330707
Si	-0.22104883385686727	0.5544690133814739	-2.850019121484439	14	-1.5155927955046045	4.1625529216919475	-0.6359654720439475
Si	-1.0621247246077763	-1.8027451307525828	1.6305001998219522	14	2.467745600725466	0.6185791436480421	0.7112494927021393
Si	-3.029418919596683	2.4366885578953097	-3.402027875177235	14	-0.20659396890560244	-0.8246501497315265	-0.27251222421409094
Si	2.1286844562097222	4.096939767549018	-4.482704127030731	14	-0.7529944729011276	-2.173840494695083	0.8611937838678553
Si	-0.3370724216560879	3.4746417017115814	1.0077463468492787	14	-0.1848280197073569	1.848107933017119	1.5944719927319593
Si	-5.842084303665302	-1.792184740997475	4.005140275146014	14	0.21349173025849574	0.3921346990077044	0.4808056937363113
Si	3.2169862250040433	0.7674722134598204	0.7928129873373659	14	0.8476129484563011	3.796226206556294	0.43001736479476627
Si	-0.8921943996508679	-1.1483943300504451	-0.5362712165863615	14	0.36339591218121725	0.2925457626476207	-2.5871904121414575
Si	-0.9264725647454403	0.49201032238851367	0.8949043514223277	14	2.9063944231905015	-2.5436163476177156	1.940548939476659
Si	-5.427571666049353	-3.0403934811398963	-0.4657688734980771	14	0.9169199205767448	-1.299815866837561	0.9734307586293435
Si	-2.825326358012208	5.627580969407068	4.0714295597581565	14	-1.0039932304594115	-0.28483116113451645	0.0669605814052765
Si	-2.786625076022646	-2.46173406097655	2.713016444523565	14	-1.1658373683783687	0.5157688694323449	2.7413348609581676
Si	4.57701342120233	-3.424021586135588	-2.6536620602582044	14	-0.645540782477243	0.8567416578954866	-0.15432031242060784
Si	4.48999870287771	1.1408599705366678	3.42766689237588	14	1.4803331713651577	-0.21396147120048675	-0.9660604281186068
Si	-3.761879745179159	-1.3817266272019333	-1.9708562705349388	14	-1.996371749745586	0.29622527147128463	-5.149915471609046
Si	1.1967226290094783	2.4483656261317464	-0.11217515903126807	14	1.7463389564560818	0.21592271033869576	-1.17447293981715
Si	-1.3391769164444187	-3.425772403239854	-0.37614626008662577	14	0.1638673406953817	-1.830013522216045	2.7952787074591297
Si	1.7569950016324298	2.0721777506979904	-3.190267190463207	14	-0.6783668554311696	1.9230872776948735	1.2121252345675264
Si	0.570937791587483	2.7986429937689117	4.2848617942485845	14	-0.5795875601364004	-1.1871150646763182	-0.8148861201677322
Si	0.7410236786753308	-4.985915913688478	3.4656171164339007	14	-0.9933858783506088	0.3528978320485206	-0.11362665718702815
Si	0.9941698352688241	6.332524142120447	-3.8246703681075633	14	-1.1135004627024985	-1.5553742225705955	-1.911361751882338
Si	3.0618035863968274	-5.269956511318212	-0.6688190697210983	14	-3.4581672517524757	3.4007925223123077	5.255794874245404
Si	2.3388736661487832	-1.8984515115778415	-4.16072321375896	14	2.4616849912648133	0.6136518774125104	-1.4069875070078253
Si	-1.7320773171173756	3.798534939268149	-1.0615232837575839	14	0.4985015832127625	-0.5796196989529023	0.19061249245662606
Si	2.7376923636886246	-4.304860941069479	4.727438038454317	14	1.5632893702986714	2.2083532127390266	-1.6686509523235513
Si	-0.034034418061380654	-1.5077398799956176	-2.8330222247065144	14	-1.2353865386199703	-2.536851255299342	0.4798672402944572
Si	-1.694776094306268	-3.3005349794176704	-2.5142754184117253	14	0.003916821844713584	-0.31173392165188585	-1.091091994284748
Si	-1.2262596170559938	-5.081845233873364	-4.820145141761401	14	0.30440832837371995	1.3853542268440995	-1.2058059719116665
Si	3.2434803385020565	1.401093617083087	-1.4845551774360601	14	1.9857913942426448	0.2207314486189687	-0.9288624476783005
Si	-0.7788282490183951	3.181524995041053	-3.624852297178327	14	0.29841482476192277	-1.8757887100043653	2.1190209297220775
Si	2.8742858230693837	-1.2729005127730542	0.8235033150043491	14	-1.2288803566073356	-3.9951765364556286	0.6460534608780806
Si	5.206089834414011	-1.4029078480496475	1.8800713999286345	14	-1.3669839364421734	0.6958796822088262	-0.910625340531958
Si	-4.450696970879553	3.802819338339371	-1.1920508108733052	14	4.412118545144781	-0.8093993814145362	1.7602332096061621
Si	1.7940217613207974	2.7776797580728325	2.131152642631187	14	0.3073195909277236	-0.29724882849923556	0.6831429406738767
Si	-1.9737594364180748	1.1523993117909352	-0.9967480051077047	14	-0.5266276756414583	0.9772964154781859	-2.0668909980244794
Si	-3.2983630546341085	-5.142118128300385	-2.5818260443785546	14	1.2289718879567328	0.9196224093787523	0.09777527866725122
Si	0.9710426015219701	-2.4690702521706593	-0.6120973515825266	14	1.5092038558945684	-0.7849116601243818	0.4196450117122248
Si	0.9974534843257228	-5.029866674466045	-1.9319934813648472	14	-2.421972726931934	-1.438152903035468	1.9165790387979824
Si	2.3159852252271294	0.5065538953689482	3.066035470863337	14	1.2372989267570966	0.30752656490599556	-0.21236969989678314
Si	1.1748924069148516	-1.9135757177349033	3.4486766976270817	14	0.1179661687463741	-2.0538884041994265	0.3882119636207545
Si	4.259113784474121	2.2851472621619933	5.39592022203198	14	-0.4937630361077295	0.7441820094163201	0.2967721455728802
Si	-4.3427318977996325	1.2183259483780855	-1.3338818589428896	14	0.702316958598881	-0.03362645804008867	-0.5280358700253034
Si	1.9134310548615456	5.691621043590979	1.1748507915677213	14	-0.9973641496124738	0.6005114723422976	-2.0493522030830893
Si	1.3044885429281337	0.43981972287915083	-1.1196262350842414	14	-1.6708567035777067	-2.111815407062363	0.7732262435548408
Si	-2.160697557410489	-0.6738763252390256	-3.962885835184805	14	0.20290777520810618	0.9520743865085972	1.6735530217269459
Si	0.22077536157572542	0.05158123192638372	3.2047602305221257	14	-3.4202951274972273	1.086334678110878	-0.10508056021338795
Si	-1.2455721106492388	-4.0728375456693975	2.2074603266441457	14	1.6889860814111346	-1.3215828444779345	-0.33555444111146177
Si	-1.709785362837922	1.8526270693378133	3.9800323490440785	14	1.4809612923948698	-1.1066764920722933	0.848861734310297
Si	-4.09067170359792	-2.2511594136557345	-4.155603535220337	14	-0.9495449330946357	-1.0146908283649516	-1.3339352057675222
Si	-2.449370339512463	4.4446211301985326	1.1872283848141847	14	-0.46239992208096725	-0.968546172742126	-0.8862445772231219
Si	1.9353781962647765	0.23625527986659126	5.440775621188832	14	-0.14265237936724387	-1.5304093041330216	-1.552972295980513
Si	3.6327314695683266	-5.892789631618753	2.246669910373656	14	10.968266647239657	-6.219888149683565	2.586956184446792
Si	-1.2251409568914682	-2.4181736917887284	-5.053463567130512	14	2.9429303440108696	1.4588137911671142	-3.2343445632070935
Si	-4.5209129607459175	4.283261585067265	-4.197247616756968	14	0.39751910776915855	-0.10333992191164772	-3.4245238244172747
Si	-4.576796426892294	1.7133642826911262	1.0196919331588656	14	-0.5613370832423934	0.3196115312422876	0.8244053805050484
Si	3.1721605510951414	-3.1444229313912113	2.50111109693618	14	-0.10636328465760983	0.9288231097669022	0.5065306309065208
Si	-4.58045758659816	0.10476069135088985	-3.9542268704569112	14	-0.8920563036887846	0.3682103068931945	1.529408372831888
Si	-2.21281780716637	1.945086462245312	1.6563611655386261	14	-3.153768179357909	2.337253006859331	1.3354444445904488
H	2.1438324425651443	-4.291218043101935	-2.464985012260703	1	1.3109091578518717	1.887002842968723	-0.4690552282021705
H	1.3194086357159374	-2.2822024809317267	-3.110942393783303	1	0.6412529501348321	-0.1262502700878912	1.5445038463875413
H	-0.8390228669591484	1.9713368287101334	0.4206984617143856	1	0.6760297206951549	1.0868882370863058	-0.8459319597979882
H	3.1871807188843775	3.1321781109189253	-1.4539837507608777	1	-0.9326185754405049	-0.7372487668100088	1.3430978537969338
H	-1.965751454620291	-3.205101080031955	-4.143582644949276	1	-1.7417950420237842	-1.5527326689646754	1.6500603181956888
H	-3.1598067380470383	-3.0780414985104234	-1.7785041910491945	1	-0.21848558812181937	0.1386196006725916	0.02416864711992396
H	2.98615183952197	4.629034586798377	1.850001339102212	1	-8.936515202736173	4.802262180192563	-2.3980897296130785
H	3.2660507192706434	4.9082349232202205	-3.6602847927349655	1	0.35770502766560147	0.573017100490762	-0.07620524769440093
