72
config_type=liquid dft_energy=-6919.489343759391 dft_virial="-115.34810273990787 18.879269090834267 -11.427494638529296 18.879269090834267 -114.22362934484579 9.849270570039433 -11.427494638529298 9.849270570039433 -113.29362052410985" pbc="T T T" Lattice="9.90122247339605 0.37328966375861156 0.0562897112016954 0.3734382899983626 9.984720694888162 -0.14749668032889238 0.056834674080782396 -0.1466049228903864 9.935049805563379" Properties=species:S:1:pos:R:3:Z:I:1:dft_force:R:3
Si	-5.462931830169313	-5.219188760344066	1.9312741303644523	14	2.1147888903651144	1.6309901729256184	0.2415293766641785
Si	5.688150125471995	3.6130325477517293	3.6278783274196575	14	-1.8979377538953128	1.234754303821746	-2.3565823195456717
Si	3.7304215152734623	4.383052214960881	-1.383636969803533	14	-0.168005020487096	-1.4211658672957819	-0.8679619615126131
Si	3.327976337483696	-1.2331380394316702	-1.1379419420295565	14	-0.12775102426326163	-2.254749322462163	-0.5723473275548635
Si	-3.2247603681846186	-1.2478946433557478	-0.55711555129064	14	-0.9545099945783735	-1.962377366534184	-0.5915894797708517
Si	-3.6364491072452987	-0.5098226818018718	4.0510856000610405	14	2.538638173496845	-1.5661908626524585	1.5604781237416214
Si	-0.22729509929280264	1.4338716479977724	-3.182067976236943	14	1.686281021503807	-2.159140200027137	0.13948734871814156
Si	-0.806553978623145	-1.4141271474676513	1.188928668996936	14	-1.38671845532697	-0.6676510026778564	0.09385177194870525
Si	-3.4899650670299094	1.4115816754015158	-4.3162268850440375	14	0.2260379528892223	-0.3132423891432168	2.4509136026365845
Si	2.4014948551638713	4.1590536456657565	-4.8741648348613	14	-0.7707543829000504	0.8490370836931309	0.39625515239377374
Si	-0.2865761612798865	3.3851984306294294	1.728835283407607	14	-0.012269057477214617	-2.2513413223603065	-1.1726232866498354
Si	-5.83945361922171	-2.026289894595668	4.666747008872796	14	-0.09020851571005542	3.2786565349577175	0.30653437536295036
Si	2.968897323928477	1.2266361368633631	0.8259100692467168	14	1.4028909649012336	0.49159482299124874	-0.09242892226453531
Si	-1.3524680656445514	-0.4852131490239013	-1.6235970064063172	14	-0.0913382593877285	1.7465474730975457	0.45460870162932254
Si	0.6834121847814498	1.235020638468516	0.8096008165380405	14	-1.7736919175150092	2.2765240134184968	0.47781189870153085
Si	-4.550446976267638	-3.4805530626872776	0.4013076916348718	14	-1.2204425031676736	3.4697757922729444	2.0337283673841458
Si	-2.5201144479507422	4.568187995085916	3.4676196073041456	14	-1.8085509634455768	0.6311166245206803	1.7762828203461225
Si	-3.14869147699686	-2.486950979654303	2.416255422454342	14	0.4513580531730593	0.4241436746908879	0.44028378833811743
Si	4.073198212011194	-3.4561654784273355	-1.5066123022567066	14	-18.914028526362525	10.763157491656441	-33.68093719071729
Si	4.714498638021595	1.258910820246092	3.2988019974621734	14	-0.05238678511908114	2.335851240238786	-2.8948162217128104
Si	-3.2504083029576494	-1.917305245511055	-2.89997240066475	14	-1.0082219273794593	-0.010831809603251842	-0.7846414369552343
Si	1.7026760743698328	3.0803253883945967	-0.6863559751701179	14	-0.4612786630508507	0.6333953951659275	-0.10884851506006497
Si	-1.578399766898038	-3.12754394476349	-0.3523591258352774	14	0.8616486123989893	0.18736338666355493	0.20103035410333406
Si	2.2569518736396303	2.5887272561109924	-2.990263832155081	14	0.02256427740015156	-0.6273201304049496	-0.15612240013949963
Si	1.041593495848573	2.5017016385287905	3.6186080134255887	14	-2.337282574570512	2.6135013042141284	2.3307447679624396
Si	0.7176764780936453	-4.781376482543152	3.701805019071805	14	-0.6013501668977299	0.5112658355746376	-0.2137935780230811
Si	0.9072274483808823	6.336553894900896	-4.004307968203409	14	0.7841845515398439	0.7215418844092241	-2.414852564968848
Si	2.520544473204422	-4.829251966891744	0.8306760173347324	14	-0.6726456318727762	0.6755836339221092	-1.080677217964424
Si	2.3376747478147917	-2.0597664688371835	-3.731241932116888	14	-0.4169903454691719	0.5142989685208164	2.1805821899550435
Si	-0.5930494126960385	4.454383892466977	-0.7321021409238775	14	1.8232474014555433	-0.8711416474620401	-0.3168694474183496
Si	3.51624614958428	-3.881655650111293	5.09996277249901	14	-0.9212774298733316	-2.6895016348145138	1.6430998218729838
Si	-0.0508896244907424	-1.6445196175968648	-2.971849041049932	14	1.4223526895115624	0.9127434170946961	-0.619425037298371
Si	-1.489116021313219	-3.4660976746090957	-2.7031565797784842	14	-1.5105462299822177	-1.3351724216475773	0.27968226562038784
Si	-1.3928091904793662	-5.10956700011172	-4.771783154188024	14	1.2333198841636352	0.19768148942384117	1.3635471399607313
Si	3.445755696595175	1.0019489326573914	-1.474083963424803	14	-0.2056197770997984	0.8669530597849868	-0.6720650762914866
Si	-1.3556159694024776	3.2975059766515447	-3.093019060110931	14	1.0196522903012413	0.14740661021472967	-0.6038420821740175
Si	2.514676709259053	-0.9067181557993357	1.762655679683746	14	-2.4371707875898614	0.33171732353167277	-1.310965979279447
Si	4.669011081925002	-0.7729089613099119	1.895121292965821	14	2.040580620172872	-1.1005315503571396	-4.602863192414864
Si	-3.9453003784974663	2.73864456246463	-0.40801073504764185	14	-0.22194783854593075	0.4277169968648297	-1.0144352604961289
Si	2.060033005227137	3.3569515183439527	1.7919211771323165	14	0.44876689323141405	0.185802468623693	-0.1393281972988244
Si	-1.826188442969307	1.6108062322133463	-0.35132072384021706	14	0.812279790704698	0.24216623945197924	0.10866185281382222
Si	-3.260154220918922	-5.407253468233793	-2.1387910405127903	14	0.22729239517492258	0.5771352398820433	1.076875838748585
Si	1.0817998662260135	-1.8625473754203934	-0.2064398653309423	14	0.6187511505939601	-0.5691455300996832	-0.8561670158564336
Si	0.6282272619619035	-5.370508107559354	-2.57547772225799	14	-0.08120244799464074	-1.8600049515545083	1.7108466472851618
Si	2.437611031423364	0.9302506437599105	3.340326187165406	14	2.4032748777122213	-2.266298213339204	0.6487986300284027
Si	1.2330548087374096	-2.235584374571428	3.1254245345846403	14	-1.6684761171617812	-0.5264592682429887	1.0726126890172474
Si	4.106439956793903	2.554590781364983	4.864937127055959	14	-1.2902559830361866	1.1477180178556892	3.0526070120945543
Si	-4.1715610391616025	0.6347261920054156	-2.027096439656717	14	0.5872309420321367	0.39202054193148983	-0.03371696094735788
Si	0.919460378753988	6.307287406610727	1.100548570949803	14	-0.8280383523224175	-0.0034139136440926197	-0.08413196539641746
Si	1.0295191001312018	0.3491795151462044	-1.1792223846995975	14	-0.6896725197449247	0.4994703756973942	-3.061098344524875
Si	-1.9387589477983127	-0.3728021696922283	-4.284223692259253	14	0.578190935726496	1.1466852048485856	1.4004471292944327
Si	-0.2804478059941536	-0.06303635164479246	3.1556115147196664	14	-4.718652920507732	-3.61701219531548	2.655029797345161
Si	-1.49443386817151	-4.621501218126197	2.2606913098317656	14	2.5508887190157545	3.4655802626115273	-0.8014338400221854
Si	-1.2214461085712582	1.769593552555323	4.497890756208488	14	0.2727942744677112	0.33470160547676864	-0.25859277423187327
Si	-4.208506549838906	-3.236508777016136	-5.234417004868954	14	3.129518799530932	-1.0595383613537626	0.31119913174529507
Si	-2.6805198126228085	5.040239795159067	-0.05170508712617622	14	0.6334329333036017	-2.4881992577683083	-0.09693067056958257
Si	1.4430617038223759	-0.2380972543979053	5.3618600420890425	14	-0.00023037103668526788	0.32889219300589406	0.23025045184575293
Si	4.075879429376301	-6.98150557220118	1.6045906828669594	14	0.36975708385379563	-2.1419873279943005	0.022715972614040292
Si	-1.386651109945683	-2.1563011932386544	-5.489870831544981	14	0.5578025847587859	-1.2668998051974292	-1.1220992673352017
Si	-4.439682775672407	4.8857091303235585	-3.714459057124205	14	-1.7321891354371788	0.2570889347301187	-1.157680536750199
Si	-3.6503961935835325	0.433198919319043	0.7906688061185582	14	-0.26873938426730565	1.3694295718226983	1.6187501689385217
Si	3.449724017196527	-3.146957504199765	3.0347199221478016	14	-1.1573650621274167	-3.1404830210581713	-0.30325750163242166
Si	-5.792279650724742	0.21713203701862924	-4.0422720640438055	14	-0.2976476069343905	-0.30015057796355477	0.39555349775190535
Si	-2.3000059227707	2.232101566353263	2.338768636939359	14	-0.27612231319411085	-0.7902058230890987	-0.2005400443187818
H	6.195468950554861	2.729833008130592	4.6627499538650925	1	1.385262181273638	-0.2518665056038339	1.0132926612918551
H	3.62727985909426	-1.8130488925337203	2.5854079367565537	1	0.7732424415183579	1.6702761479964172	-0.42410022301097744
H	0.05112544479114731	0.09030926663910095	1.737598286503326	1	0.4551365495515489	0.4163426840390267	-2.167246637991031
H	-5.379669428977605	-4.068327234713754	-0.7906529526529846	1	18.579824943986267	-10.309452019326086	31.544625577717213
H	0.8291213868669369	0.6980716862288902	3.369660052684262	1	2.1922524370031957	1.4680605143404948	0.15140159366117575
H	-2.5363236256579866	5.363861542117689	1.510949215932641	1	-1.1775564664276035	-0.2487521257295385	-0.12720980659337047
H	1.8137028479886248	-0.3276098843919409	0.07044487427558063	1	0.2770088303084979	-0.16521382855154323	0.7720062540804306
H	-4.760757068881697	-0.5036844181001555	3.025959891576878	1	-0.23118196330324256	-1.1392480255995254	0.8060960252992098
