72
config_type=liquid dft_energy=-6932.042573670886 dft_virial="-4.202772513204876 1.0811356316124106 5.0563006434252005 1.0811356316124106 -19.284045555444525 -8.21890687526824 5.0563006434252 -8.21890687526824 7.301648644658132" pbc="T T T" Lattice="10.7418697584 0.0 0.0 0.0 10.7418697584 0.0 0.0 0.0 10.7418697584" Properties=species:S:1:pos:R:3:Z:I:1:dft_force:R:3
Si	32.67471610792895	28.381813793942456	-8.780458049864952	14	-0.5398511274135119	-0.29636436826910467	-0.3131410875936029
Si	28.251396753205718	2.46149945513736	11.814649549301649	14	0.4395422815637868	1.253663240788243	-0.6453692897523892
Si	5.6017776603080165	-7.933418651936078	8.869110700981027	14	2.207214984413797	-0.8452943256785915	-1.5269249422031568
Si	30.882145108256427	5.718122851661247	42.66806015595436	14	0.4076006688399912	-0.4179681368224243	0.4270569941291477
Si	21.957874906066017	9.352537807588062	-5.4268892787715055	14	-0.18573484855377312	0.09617219450013889	0.1012041047222007
Si	24.138979334899865	14.51858226301634	0.346854974498736	14	-2.6437809544589808	-2.269348315580496	1.8654479815172618
Si	-0.048123576517631994	-6.503149435474877	1.4795206893034656	14	0.12033287119357039	0.7398260427829252	-0.3139574135327499
Si	17.3493334910987	5.646646450288853	8.458191215243193	14	-0.14324990424364625	-1.511679830317871	0.10029984698110463
Si	25.2083539530881	10.495934650281432	0.6465423988883376	14	0.7585274915500863	-0.9763307083199383	0.9142719392075241
Si	27.62044080733682	4.261310475027039	5.974552766533772	14	0.01186693660514346	0.18779250414148763	0.1058657757781612
Si	19.173850811432697	-12.175887887406882	5.689646154931728	14	-0.6251431755303802	0.20716115473922714	-0.6212024424061893
Si	11.256996122664072	13.790874296233532	17.033479552722707	14	-0.10940721624613316	-0.024336026076265598	1.3225148701564884
Si	7.768885432846666	20.431605599573995	-1.5742639805725536	14	0.3249218921705214	0.17390699274949592	0.014462981646896972
Si	28.81264870621236	26.305721883866727	14.489858503282377	14	-0.23335891817781196	-1.2554491305436177	-0.5274103201009115
Si	7.37724760332516	-4.12266516205537	-10.078817105693002	14	0.32876415196095066	-0.9285742267719117	0.7084027648916714
Si	23.909339643204785	-13.045485211828398	21.77605801853534	14	-0.4946837489228746	0.27125006861243023	0.1343140277034716
Si	14.33496074136625	31.193476719464137	-3.6630205550934334	14	-0.30733244645432434	1.651416319141535	1.4949884716900017
Si	-0.9698726786161775	26.457934178343255	36.71550673868579	14	-0.22087491629583297	0.8576785686741487	-0.7735592016938001
Si	38.78351002083344	1.7552967116108689	3.295917156100114	14	-0.5646674359635812	1.964700360190938	-0.6183040353787863
Si	18.684837932551297	-4.002710702463316	15.603092175694163	14	-0.0004090628564355593	1.2806084245433949	1.142139233532032
Si	12.28346771303726	12.775015673181644	-9.360143051377008	14	-1.3532169530054405	-0.8765286273288143	0.6660525465003203
Si	12.279385802529067	0.4980897588272496	-17.700356311063693	14	0.710010734158892	-0.260480479757926	1.1686344738561576
Si	33.57407915345099	21.99324788318043	7.176879506721725	14	-0.915243045686944	-0.2465808272866735	0.6573375279071463
Si	20.46465833282059	-22.10844369446951	-3.2653028272886737	14	0.7206489395315366	1.4187937655274132	0.22679900006398615
Si	22.327502644452565	13.425156598439045	-6.721531647663149	14	0.7507133882610924	-1.1895915533206847	-0.8402709001040861
Si	54.94672625320962	-11.715072416641283	-8.6094797089205	14	-0.9996503764631494	-0.8031580232498767	-1.2434749788466242
Si	12.703979688469344	32.49683074472984	9.897676955957103	14	1.2526455973025283	-0.9384992075287475	-1.8105178590154902
Si	5.797934943966158	-5.892033723049742	33.86376589709552	14	0.9836560444875724	-0.5557834957508735	-0.52707324819344
Si	10.564811519172293	0.5630028777772608	10.173034045343929	14	-2.3906232397633684	0.0015241512337837812	0.40852035321300817
Si	20.82325417096526	29.377488443718306	18.681293115531023	14	0.746560281837457	-1.2351726226573339	0.6074462576118009
Si	32.58768547914639	26.737641724982232	-2.371321458515592	14	0.3963677668067962	1.3245871810445276	1.1067117162151794
Si	30.465736527072053	19.08776546718888	-8.704115581492003	14	0.3910216675146123	-0.13491695190104636	-0.3967218080093806
Si	24.089781571406387	25.41323363499006	2.7460730687768926	14	0.5036044559416604	0.12358197698664153	-0.49856868906161833
Si	26.09999359425385	15.181312659630585	10.033765703926273	14	4.0999673330994355	0.9690189990105013	-0.17634671458778442
Si	1.613751093804432	2.704308679156233	-13.048739998365193	14	-0.2847990223180146	0.41246931387422353	-0.25087611583451286
Si	7.848203399142691	3.704967556499986	20.53013002899804	14	0.016981893529046048	0.08368433596017967	0.25221154793779776
Si	5.549378819626541	8.018762807166567	29.908222744741337	14	-1.9883182765512863	-0.6757461277783426	0.32569013844018163
Si	1.4293454156619791	26.85648977198917	-15.158765475007703	14	-0.20271802763547922	-0.38457642069806514	-0.9674835349133086
Si	10.68889085675157	19.363047363487397	10.272911950357532	14	0.16313894655818376	0.16604558112261117	0.4559397628535632
Si	26.24475103111805	-11.71239769107144	25.328566217554354	14	0.98858279650204	-0.05756601967598743	0.39283223988106064
Si	18.588171846595454	10.762075215415551	3.518252376359477	14	1.9827492624278453	-2.04714465205521	-0.04451097530240355
Si	5.737683796491293	0.7384820621504833	-0.16183700978005439	14	-0.21084477733140328	0.3737101582835232	-0.08037943718166134
Si	18.52280756911559	-0.2720271097617216	22.345849757999908	14	0.37452674133320235	-0.21200383160972605	0.001282210223157847
Si	26.943004791023323	-0.41972781893972155	-2.189869794556699	14	0.1460374966317508	0.6641442721317063	-1.0848521787832806
Si	30.055740842133442	-6.930675851859197	16.78061593860997	14	0.05369907727448472	-0.06411796736332077	0.9342028905387801
Si	5.173359668733749	-4.324311541160054	-5.951028071762876	14	-0.2538531986847123	-0.6455299838348983	0.06501348334632835
Si	46.88692950356596	18.49020599439885	27.792128111685326	14	0.3484143385912464	-2.457839131926936	0.2674638589179802
Si	35.02358705864948	26.976519424669533	-17.091603809985408	14	0.6092658288468698	1.5561185575607783	0.038087325770545584
Si	6.491988632795899	-24.47891654527419	-7.637995749840562	14	-1.195826483722044	0.09160308323570375	-0.7577677299279825
Si	13.15766255771537	-24.38514002228336	-7.627092752035786	14	-1.7365551293813224	-2.3197671766875354	-1.4857834004228074
Si	4.465792707747941	13.452999524852817	-17.70919686987486	14	0.5961804454305081	2.8397922538668534	2.0510473328206626
Si	14.31561463393137	12.890866738525988	-1.2074183864534351	14	-0.5662126702609902	-0.1483638327254208	-0.23283029892398954
Si	9.846255625423641	11.741443706898153	23.283314215554995	14	0.13438807553669188	-0.2548590150859542	-0.039786826387163465
Si	-3.349529828064288	12.540112465304952	-4.953785109002295	14	1.3995919796649514	0.29652197702522975	1.5112519983925983
Si	34.69082541727377	17.31469096112786	-2.7218931199507344	14	0.6382195600781213	0.765312381379425	0.35203419777148287
Si	18.42161915599146	7.566325994812517	-2.8558227520984656	14	2.026668112175019	-0.07748205859638646	-1.0567967917508885
Si	4.025590885048709	6.798851626184112	-11.355187554125607	14	0.3979469396944312	0.8802418176321721	-0.4977539057856634
Si	-6.916808098001103	-20.477505609051637	34.961778340059645	14	-1.3343123869179876	-3.462557671197161	-1.4468581514284258
Si	13.922311814597313	-10.019564952105666	-15.748472641004348	14	0.2030137047472963	1.2800291545147653	-1.9003450798065673
Si	31.518063797953708	-7.773644081149637	-1.9345677760088065	14	-0.5883699416889624	-2.5737934107602936	0.21038069282111657
Si	6.130331361770088	21.111909695112985	-4.854433555606853	14	0.07445355363978405	-0.39970197618596426	0.706311684934795
Si	6.33307341159013	8.60322794072111	0.2409293968111536	14	-0.8115259426248306	0.3664863807760353	0.06552256219971767
Si	14.866318070835264	17.16281166461384	12.86332458446545	14	-0.11908485667117051	0.3024722860676485	-0.06980936610000056
Si	31.705240878493832	-3.4015956707832524	-17.19497282267049	14	0.11322659319921313	0.3756253746365016	-0.525320268586163
H	13.979801227357294	-23.56300135264143	-6.804954082393858	1	1.7239394869069518	1.682501496683189	1.5789299181821963
H	21.85803674597052	14.90388990868922	-6.561183461031609	1	-0.14434699488375344	0.6221563224799641	-0.21453431346581578
H	21.230869457565408	12.649665572409946	-5.928580786528747	1	-0.8673474673410977	0.09123181562747436	-0.06680014443329925
H	13.653462149910126	33.44631320617062	10.847159417397885	1	0.04496220428608954	0.5187359249717958	0.8487550334395108
H	7.413476707459316	-23.557428470610773	-6.716507675177145	1	0.2309389938504886	0.32435882010540895	0.26721343325979774
H	38.635028377724005	1.2553915767944497	4.8696268561931335	1	-2.308370238134915	-0.540235764769406	-0.7716918078997765
H	31.264160370848362	25.907633561555304	-2.150703863230597	1	-1.0639542347411168	1.277334893249782	-0.5885879714201109
H	24.809109805590673	15.567767536993664	-0.2758759216961563	1	-2.017226499218371	3.5950845235925977	-0.5810299502210036
