72
config_type=liquid dft_energy=-6910.897678675935 dft_virial="-79.32714154180205 25.09493307763063 2.8935608420572883 25.09493307763063 -128.92371068557742 -0.502366817009324 2.8935608420572883 -0.502366817009324 -84.75144274696544" pbc="T T T" Lattice="9.90122247339605 0.37328966375861156 0.0562897112016954 0.3734382899983626 9.984720694888162 -0.14749668032889238 0.056834674080782396 -0.1466049228903864 9.935049805563379" Properties=species:S:1:pos:R:3:Z:I:1:dft_force:R:3
Si	-4.876291180931338	-3.7549478173571726	1.6705470447020598	14	0.6325754696793323	-0.8549827647459736	1.5010300549712856
Si	6.249391541178122	3.6741565751117258	3.2315208804100926	14	0.5135502626515892	1.2972568457124176	0.5915923079867039
Si	3.640392656806692	4.26263028130663	-2.720519097106196	14	-0.5166353319252349	-0.6555873765157215	-1.3944505403562513
Si	3.3136269694565366	-1.0818286006323654	-1.8805123244398958	14	1.1536744975508764	-0.07538352243408161	-0.1736971905553718
Si	-2.678625323486782	-1.0087976297851176	1.0292585087908384	14	-1.2990234521778914	0.2331097780722896	-1.0541441823920918
Si	-2.6594059690037812	0.1541204564137953	3.1834204750186768	14	-1.9145244685366523	-0.17540260471422608	0.49634725406501035
Si	-0.5456653857802231	0.876866080124548	-4.022067813012055	14	-0.616336882698341	-0.9307285559196639	1.4842685051681763
Si	-0.871113253804586	-1.5405565537326384	2.96614377512669	14	-1.0194638282812745	-0.8992232597686975	-0.06831015458782222
Si	-3.028188294331544	2.3614569278581485	-3.427549973067276	14	0.3384703316550417	-0.706032205786495	0.9858571677521512
Si	1.9093418515851965	3.627308593500612	-4.224673121357421	14	0.8883883648390614	0.40863605295241473	0.010882203267526746
Si	-0.43327422328051685	3.4660986654506942	1.9786710382210464	14	0.5071201853564309	0.2086220567821353	0.12836397577158495
Si	-5.948883156183976	-1.946412208303891	4.006340184321604	14	2.4731078979811674	-0.019030550248140037	-1.2922344485800403
Si	3.2365721908784297	1.0392075492797703	0.6880334699961075	14	0.22957425114655397	0.6501132361785943	1.4762823949332644
Si	-1.1144689045648817	-1.688093858567063	-0.5885609002555583	14	0.8731262836586624	-0.046921386540042374	-0.6933633414319972
Si	-0.29905184784458544	0.806157641983809	0.6059006282265083	14	-0.5209146796200893	2.278294990763015	2.0998057741119514
Si	-4.864088966647779	-3.561274946020841	-0.5834441942417306	14	-0.501723178178908	-0.18272716955026388	-1.367755268038218
Si	-2.9178392563660167	5.665106122419401	4.006094455605216	14	-0.6612854601262338	0.27014552176689466	-0.17799762131385152
Si	-3.290698894870949	-2.2954312071111644	2.815683487577163	14	0.6622830489904512	-1.1526761373550627	2.0687699617924435
Si	3.772376721071973	-3.2935911614965034	-3.093338111105596	14	1.0331115124311525	0.8334307315103643	1.5927724921153414
Si	4.5393366694254516	0.5088774189170555	3.156448775870264	14	0.21564040297454348	0.2087524118218668	-0.4229571095856396
Si	-3.934775659039899	-1.5515776848309744	-1.3692469772708409	14	-0.18429245846917006	0.436368252046064	-0.30078204143018306
Si	1.5088912379328887	2.7230298897163894	-0.7780950262356237	14	2.107179961280668	-1.0476783667329836	3.995615424133778
Si	-1.647192908229186	-4.0376577147203365	0.07521181320519438	14	-0.6964813208537409	-0.26087900108254897	0.10323862036203388
Si	1.6513088642286904	1.3941775427266738	-2.5887966150228765	14	-0.2146872942323646	-0.5074814256539117	-2.6434245992616083
Si	0.6881672336118835	2.4269337223596525	4.038608922654743	14	-25.018131061721732	89.04531835261979	-16.819357249574907
Si	0.7401140860880546	-4.751309394241525	3.7529344272293454	14	-0.30577487085137867	-0.10411819549205653	0.1835604647845239
Si	1.6164223223927374	6.048388423697272	-3.730571132354812	14	-1.2256618469675742	0.23000413995608276	0.9843479289292241
Si	3.2181484821988957	-5.2742627089045975	-0.4313529814213356	14	-0.19891587708804426	0.4028873185670957	1.986563240059753
Si	2.482331676122842	-1.3962226397856474	-4.234148539562347	14	0.5392708289427546	1.4132795159472917	1.0703652858569062
Si	-1.5531838390618835	3.37510472726714	-0.24700591120858026	14	-1.1428491157109246	-1.0197592482825597	0.4927986145021421
Si	3.143322106375456	-4.440422934346366	4.951645675326692	14	0.5402679035859079	-1.2019364584048438	-2.4394600997669214
Si	0.879678088580637	-1.3611795449771567	-2.8110255412233665	14	-2.518164718943038	-0.7597847620516387	0.6588470238406053
Si	-1.6342961139851926	-3.251042441580587	-2.182506971831551	14	-0.22449734658138956	-0.822646230245003	-1.302040644271085
Si	-1.5796977693918637	-5.002511519619074	-4.563313054422083	14	1.033777942930135	0.4970774479759325	-0.7001351186242032
Si	3.674556875117455	1.385573074286689	-1.5291450310445567	14	1.403384874233234	-0.020884317183966803	-1.1440799038276797
Si	-0.29214568190415563	3.2879265200787935	-3.403203013312866	14	-1.477216991717138	-0.5184052808276247	-1.5177157571674504
Si	2.3791721847948692	-1.5161927496710563	0.22734464137271962	14	0.02720949338206309	-1.0166662085824214	-2.1538853749738176
Si	4.856101792523561	-1.2287159133782788	1.5431178792643474	14	-0.6871883177845977	3.007598013691638	-1.7996217717792344
Si	-3.8703551016822253	4.184918574748824	-1.272057306572867	14	0.4539345578143797	-1.3205677720975402	1.8981894651061557
Si	2.647584237893987	2.7135326729963003	2.865890422206649	14	0.8316088462805072	0.37836643001831144	-1.2463875269532878
Si	-1.497245876627599	1.4111724578214015	-1.711818569797716	14	-0.098934590056106	-0.4234713306496692	0.19867213630369424
Si	-3.465118723109936	-4.862144935431837	-3.0420283697771575	14	2.0139485970457147	2.596958812584296	0.49641153169801405
Si	1.3365174975944742	-3.5766775786670366	-1.0533448772048855	14	-0.1388227179928833	0.10926657678512104	-0.19811883443879835
Si	-0.27544207423933986	-5.750267966955126	-1.2638511564554151	14	-0.7812372935113582	4.867024209438581	0.40401397691838453
Si	1.85391219089086	-0.3224030117926642	2.029992669648665	14	-1.1456559913889304	1.2807984292265535	2.093805071405258
Si	1.1244932490152875	-2.233457037659792	3.86384031817314	14	-0.07926614857803721	-0.4848415577573478	-0.7717761401542772
Si	4.310520628279197	2.3581921047916183	4.564510981914476	14	-0.23387673878928977	-0.30945078012759436	0.7696014992744962
Si	-3.917283341462805	1.612434184959419	-1.0562847042271601	14	0.011191507237540558	0.28605217905105473	0.21983104753585284
Si	1.616415386501549	4.869022366965915	0.9024099765297533	14	0.31759655600288755	-0.4652353370280266	0.4317772863864076
Si	0.9513595331709459	-0.0355167170924973	-0.9279895432324987	14	0.255549356864414	-0.7006472828039767	-0.5354820481429843
Si	-2.2067816001492826	-0.8902206431869747	-3.187020202545446	14	0.40908393949918453	0.49212395646613516	0.3232571014757255
Si	-0.39890589160049555	0.6247385086941484	3.376902113926529	14	-0.48181356702180933	-1.091495400709479	-2.3063097543313487
Si	-0.3605801385767044	-3.5378177620217395	1.9032045787250784	14	0.31888210866296157	-0.3260524071797905	0.06883517429419646
Si	-1.8822443155537942	2.114245912438712	4.499653463411935	14	-0.2007621878184426	0.6812349234157947	-0.6224867095136032
Si	-4.008406089054143	-2.0463633545364384	-4.18071839721346	14	-0.9027526160416646	-0.6133055495258865	-0.44573350317470334
Si	-3.116672430746503	4.685888086869528	1.0363291544365927	14	1.8490666981910024	-1.6507905121066107	-0.31994886026029096
Si	1.4925155988371235	0.5325882583653317	4.730418489982124	14	2.93863248435771	-2.9564042214411055	1.0133037170447317
Si	3.8338406071002	-5.327306423030132	2.3011226012520294	14	-2.2686530887019276	2.7037347596457897	2.286163344374264
Si	-1.105429456663226	-2.520298744488034	-4.714084466233489	14	0.19043225797368366	-0.23024968051415687	0.32047285152453714
Si	-4.43287569389181	3.948707882754158	-4.447528259448062	14	-1.6636676359920404	-0.16442578477091785	-2.9365717434436114
Si	-5.075073822390308	2.519929160571853	1.2001241882165796	14	0.9320583315912446	-3.5976646277813664	-2.666887992192215
Si	2.9318230038433892	-2.7907925557852638	1.9450745721461318	14	-2.2831165845698886	-0.5672043455829713	2.11068309227937
Si	-4.567323981212163	0.5241096268083364	-3.552111642919393	14	-0.20072979189140872	-0.37975816932810763	-0.19790980357627033
Si	-2.419029778929694	1.940161979501562	1.5673528739181455	14	0.49316705389451926	-0.15275913727021392	-0.7222623081199296
H	3.1247715699713345	1.5533929066391332	5.379721943582317	1	-0.12541414663777903	-0.1457677876836673	-0.019635274219438864
H	0.5640742318357819	-6.798392099778358	-2.083362370660052	1	1.1423600914790324	-0.533687930850585	-0.9174364556355623
H	-1.1136643411870297	-0.6165095692199347	0.7266683655985808	1	1.4362284307033377	-0.07105815195399649	1.1949299392969082
H	-2.238928464965826	-0.08451284328881195	-0.2540646667551544	1	-0.6349989935541038	0.6609082789757681	-0.6918805849938678
H	-4.43287569389181	3.948707882754158	-2.8393428032623254	1	-0.9838288227650861	-0.3862653797828704	0.8947058277211972
H	2.482331676122842	-2.530846253302363	-5.368772153079062	1	0.23246108820001626	-1.2507964583562778	-0.4667587169302143
H	5.783472059757097	2.173394201651618	2.7041077877128905	1	-0.4970226834326133	-0.5761289092597373	-0.24050839074154773
H	0.8839396982950973	1.7393431585580028	4.166127263836305	1	24.666406682141325	-84.10039942218094	16.13554479307566
