72
config_type=liquid dft_energy=-6901.891450967672 dft_virial="-176.67985025039246 -15.175566148764219 -15.798627659683811 -15.175566148764219 -129.21569839566465 -4.349332294671733 -15.79862765968381 -4.349332294671733 -138.12867540485286" pbc="T T T" Lattice="9.799987616100001 0.0 0.0 0.0 9.799987616100001 0.0 0.0 0.0 9.799987616100001" Properties=species:S:1:pos:R:3:Z:I:1:dft_force:R:3
Si	33.216597425352994	25.161909203779476	-8.993389835369275	14	-0.20787180824971607	0.3161389963968956	1.6042879586232206
Si	27.159989478875644	6.891174891864431	11.795353294626505	14	0.2287031606640878	-0.6583058061707141	0.04729085437454764
Si	2.727787352990971	-7.260644224979017	8.725115174378537	14	0.5004628223509714	0.5926102085829505	-0.23863302652103172
Si	29.466818363817037	6.453968044347361	38.708040086009866	14	0.226205588956096	0.6302987559183412	0.9592367145989339
Si	18.58225631825563	8.25181497247137	-6.3190908147869775	14	-1.9272331850236122	-0.7848070161378518	0.601108482997636
Si	22.2780472480145	13.510713726985802	4.393265848384318	14	1.539687909012372	-0.09368336455023556	-0.9498519230698614
Si	1.6770032808298805	-9.096691504830584	-0.3467823617833146	14	-3.783138509145145	-0.7769738866694886	-0.7803091244907848
Si	16.20421092330804	5.3941973835423065	6.259026690687901	14	-2.261556580907787	-2.7658889167655816	-1.8636746901779557
Si	23.02742290105482	9.037695579381662	-0.1236464437523337	14	1.0967142302883157	-2.4027652846377676	-0.2858524041676792
Si	26.118260595271828	2.84217280844609	7.528085887022386	14	-1.322597916858329	1.9513933474959797	0.016013872376010294
Si	18.25020333785932	-9.238565925548864	5.14275910127603	14	-0.6213801057838115	-0.7776428882737911	0.23535358168518283
Si	9.559731119703693	11.912855146143546	17.141805138503173	14	1.070279668049745	-0.07232313577150934	-0.4057762125048141
Si	9.219446149709853	18.558383548422814	-1.0471090768050528	14	0.3958440326530821	-0.6110699734500177	-1.4793114141109307
Si	23.969240910912493	22.920122836646136	12.805408618255084	14	2.9693883033078534	-0.9676349730166655	0.25595867683138157
Si	10.367240299282717	-5.655817852941713	-10.902407823010323	14	0.7613461943125646	-1.1253905392555232	0.7997111994576862
Si	23.477800931927927	-10.722548650292039	22.582170263704928	14	-0.2457878984059398	-1.9576236499077626	-2.343453998670464
Si	12.394906736991889	29.123906997142083	-2.467215482266488	14	0.5421352973799315	0.9871293506645602	1.4726933890168696
Si	2.5150590218082884	23.269021995754528	31.231168934269217	14	-2.1001585297618752	0.12281938714868561	-1.3802989195636244
Si	34.7630452711612	2.735676343021931	5.3500778392946255	14	-1.1907650057888004	2.016150748752421	0.10990703912036993
Si	16.566222465846774	-5.636845076916943	13.847803901016794	14	-1.6037773371066393	2.1174013904809166	-1.1559987767602902
Si	11.95164349712807	7.270973411926386	-11.650774077326181	14	-1.7977158114054088	3.637092784976369	-1.4274923290465382
Si	10.427039823716159	2.3190788694615203	-14.860701221054041	14	0.09492160887241886	-0.17138242443564253	-0.17908185642735794
Si	32.30696257482659	16.102291052100597	3.1714915922975147	14	1.5053022035712436	0.9713131962876693	-2.063322303840114
Si	16.439665425772457	-20.875296620621178	-4.4310056006939185	14	3.426629559674476	0.0860407539860954	-0.49844784711157136
Si	16.57470925512232	11.547492007840106	-6.201157763814829	14	-0.24696237931618348	-0.8420706738281898	-0.7833283734682347
Si	50.71553371256209	-8.754613137102998	-7.101335626291696	14	-1.2247074526727353	0.3926736026828075	-2.1144862712689325
Si	10.25981283503503	28.944155624287575	6.514669167641485	14	-1.4315179086462941	-0.05734901838696694	1.7598647702137846
Si	6.54611732790155	-3.5057691698826856	29.025622921340215	14	23.32288870973508	-16.717965454164336	25.82355602853238
Si	8.09705356803792	2.2774191221054796	9.31853382449624	14	-0.5288635088278592	0.10469540863642977	1.5238146760973739
Si	19.367205926342393	26.07167145414489	16.784311390255464	14	1.8677871731375324	0.9051476006473826	-0.7242988806440189
Si	28.355960367569253	22.319510995618216	2.7032579839878728	14	-1.7501220808241476	-0.6013126287600556	1.2178757687265698
Si	26.88722642355673	18.60565868868288	-9.293093056644844	14	-0.8087671466163118	-0.4527919586101059	0.031099318620915122
Si	24.5700879516432	24.104372940150895	8.08637158153637	14	2.219383511672994	0.963215757192395	-0.5262337823064117
Si	24.399244767531727	13.135462401177717	10.23415646745608	14	-3.5817176041436802	-1.6051001707938553	-0.8318726416863544
Si	1.064474654860782	4.236466046526718	-13.354933123840276	14	-12.15538865390034	7.854783831590488	25.55951122546913
Si	8.217975615232978	4.305477559319294	17.842651252868567	14	-1.054994704031997	1.4800434077955769	-0.458349145649074
Si	7.414072831096679	6.851004742626037	26.963440927247138	14	1.699494703075644	2.6921501304047983	0.3108175797157851
Si	-1.1475687498576939	24.805522854132384	-14.275396960682468	14	-0.059244951450044124	0.8248566094887343	-0.5984345334646819
Si	10.325139552483952	18.388784962738587	11.561378590292119	14	1.2912574285583842	-0.33432905231587917	0.10819391164555528
Si	22.57574147182877	-10.354813914985503	24.755464517389346	14	-0.12275459529461788	-1.5827899185993344	0.8587021257020997
Si	15.70953694841016	10.800242952112479	0.42588786182047383	14	0.3768911297856105	0.357748993566576	1.234631404987443
Si	3.5926460600994123	1.0927280191579984	3.8723769066133706	14	1.9785383061345068	3.0745876485870323	0.49137087971786375
Si	18.891563527394982	0.40959048241489954	20.281711370713996	14	0.836344565169688	1.644127492669447	0.8034295319716843
Si	24.3959421717051	0.9858787541796601	-1.5728196124831213	14	-1.1768486411329668	-0.1613119191176865	-0.9279964994064746
Si	27.852544803717812	-6.833217765102815	14.962768092075724	14	0.8909520139537811	-1.566440002757981	2.299562916860748
Si	3.771515434068469	-4.270138803975637	-4.134232575715562	14	0.7253702602309247	-1.1544036630196701	0.9812291781758845
Si	41.11158504873455	16.74280844270128	25.027502373624667	14	-0.03807447024394484	2.7103106186126005	2.176358121024572
Si	30.53662421194098	25.03914475891259	-15.455756469103635	14	-1.7697990069497729	-1.0622274804081056	-0.7233172326327865
Si	6.172904399517614	-20.01868950308549	-6.964958998626048	14	0.7504765894611065	-0.09377566723122886	0.08297676777607492
Si	15.200839191233639	-23.44286397607653	-6.721948705709616	14	0.3333270925726175	0.31517431768077603	0.07684699558230988
Si	2.4374627198640084	12.16138283208784	-13.308745782205596	14	1.388404071974859	-2.0913036430392853	1.005479329334457
Si	10.019830738291972	12.565583321313884	1.0006865354675871	14	2.5393645107497873	-0.07468161068168117	-2.1933287016902097
Si	6.710443520248315	13.69236629743783	20.64071431705459	14	4.525264405636942	0.3165663141011042	0.3386274261901027
Si	-4.278360993585546	10.370209695530397	-4.022287317176852	14	-2.7399680613699764	-1.7541047229650568	-0.6029349962170691
Si	31.96075841231263	15.146400260026205	-1.1456479522849385	14	-42.65761125878044	-28.87390355327159	-1.3097025381251264
Si	18.97850901752502	4.943917352545361	-6.906266872793225	14	-3.380666681197784	-0.2103400693570582	0.15481473597367235
Si	4.424380809065435	6.918987256718922	-11.150915908979387	14	0.021698586238857696	1.233798109753183	-0.9312623173841267
Si	-6.4640718315795604	-18.448447287345406	30.416260764040036	14	2.291477304849946	1.799249475728877	1.9700482592568462
Si	10.514955512620192	-10.225228678737814	-15.34128281375997	14	1.3373648031540675	-1.6181055928347605	-0.051181708055527735
Si	27.165987071296694	-8.964773871530262	-2.2804767182417023	14	1.3734626076278824	-3.225880484493166	0.49983290154753507
Si	4.627289552656785	17.284345958379348	-5.010126068879732	14	-9.494311873952721	0.3613745091785168	-7.436086529299271
Si	6.107146482613583	8.573597565846015	-1.716458030972299	14	0.1815323769079911	2.4721465617019636	-0.27779918808391146
Si	15.011807230106688	17.464018931332927	10.86238467358617	14	-1.3388578440134775	0.20769285931943376	0.8073162718841522
Si	30.220937210863546	-3.706688515987968	-17.786017124435123	14	1.838267027404252	1.7196943349128555	-2.0218344341731407
H	5.882698346240805	14.656426359189007	21.549396608784704	1	-0.18482442015990871	0.5422057456657035	-0.025658859763481784
H	10.143376242171861	1.075674080708461	-15.837175907117292	1	-0.7862866872495969	0.1980306455263173	-0.7475637842439109
H	21.084530276219954	13.7863540586688	5.372702090705154	1	10.114989039542007	-5.935228481273903	-22.66305823810952
H	3.576189920894457	-5.778220678265563	8.137256057235447	1	-1.591293849445724	-0.619842584802363	-0.67497376774017
H	15.355978875189074	-21.97466805138413	-4.295601131799788	1	8.372141644110686	-1.1332786903777374	7.528895718040656
H	-3.3991394246269477	11.249431264488994	-3.143065748218255	1	0.6030638085936085	0.20932756808198388	-0.3816317337748995
H	3.2943775570108387	5.807891120772068	-10.905456599157691	1	41.36841997045733	25.02917010241379	2.2298872482373953
H	5.9729817121528885	6.679149219793822	-10.810320279378114	1	-21.420216265392714	14.096867819281828	-23.91946613382702
