72
config_type=liquid dft_energy=-6927.107033658788 dft_virial="-104.81820615972678 8.973279686616364 3.1888588993674287 8.973279686616364 -92.62275651240007 4.176486853237013 3.1888588993674287 4.176486853237013 -102.51704203020019" pbc="T T T" Lattice="9.90122247339605 0.37328966375861156 0.0562897112016954 0.3734382899983626 9.984720694888162 -0.14749668032889238 0.056834674080782396 -0.1466049228903864 9.935049805563379" Properties=species:S:1:pos:R:3:Z:I:1:dft_force:R:3
Si	-5.289849638088084	-5.056552020392538	1.7460749363771246	14	0.41121898535703555	-0.8800371576486885	0.4184268220115387
Si	5.093963226621061	3.4734913346159084	3.455429283119769	14	0.10071508049030854	1.2326318563799636	-1.0985685114452064
Si	3.8383974876109654	4.324262610406575	-0.9203085391621671	14	-1.5641753731919943	1.7347252737249732	1.6902860322610016
Si	3.3269963951429378	-1.4141231841012578	-0.5466423555961863	14	0.9360553719219467	1.623744541022909	-0.44971768797880474
Si	-3.4989311926532882	-1.5607518871900046	-0.5986427135186678	14	0.39044162615438693	1.7488506692433345	-1.0633284277061927
Si	-3.7164585754696553	-0.8047932531028947	4.180438979882728	14	-0.8019246640278017	0.710704932595332	0.6683621704094094
Si	-0.07858067463955039	1.3919531033384003	-3.217428140356903	14	5.027229781937008	6.255013305014769	-5.386600885850066
Si	-1.3465041900641428	-1.18307675851714	1.069074487578533	14	1.9218636886730147	-1.3103599697554882	0.19766066347074795
Si	-3.3799370617422446	1.8331986472775625	-4.573425583774741	14	-0.94875560376135	0.01987927211432092	0.3349360902819662
Si	1.9688567521894886	4.299343935049922	-4.749325729361647	14	1.2953999934502065	-1.0629561316558354	-0.6140655682585222
Si	-0.13582555714204553	3.9055785296616143	1.4548537096842202	14	0.42604860662258565	-2.109035785100751	1.7325820003300976
Si	-5.939075806043608	-1.7852924468394218	4.6649020618166865	14	1.029973478387912	-0.8293339322932403	-0.2481265758051465
Si	2.852950030932329	1.3594663798536268	0.6823093780824974	14	-0.7385931977819142	0.5439407275357394	-0.4567728009772911
Si	-1.726341335104585	-0.37692704326611776	-1.7715009226321272	14	-1.6562386842800045	-0.7931754497338698	1.5246088905307675
Si	0.34109424770374996	1.4662523514315235	1.0738275547257699	14	1.5075033268358222	-0.04990438293247817	1.0576295727640845
Si	-4.594770293486182	-3.2039982733330024	0.3166363136903254	14	0.08469786567738205	-1.1162420323053723	2.229015900644397
Si	-2.704176155783176	4.137469152287518	3.456086211099468	14	0.16212670239364144	-0.14089014378081435	-0.32036846464853913
Si	-3.4069315502474193	-2.927753617399007	2.3723482587071016	14	-2.3824774638880752	1.6348242051790232	-0.7657584681524707
Si	4.3064393517356345	-3.158443340007722	-1.5082610626763446	14	-1.5184084129406985	-0.3491267918754594	-1.3995251309266277
Si	4.944534405175406	1.0965227815357477	2.908813680246738	14	0.2237995485975014	-0.7480785195290044	1.9301195078560107
Si	-3.6295657306616307	-2.3391233582315647	-2.929772952576424	14	-0.31238518262947934	0.3843709893829853	-0.7136254511284883
Si	1.545136223600166	3.1242860575881477	-1.2204919281120568	14	1.2048739462331128	-0.7961687305475861	2.6471966678767975
Si	-1.495835909033161	-2.9554446675478148	-0.643610077776132	14	-0.07860820272661131	0.4202811031684295	0.21241340868722564
Si	2.8787039857563816	2.425772456006398	-2.943685359458716	14	-2.8116293946320794	0.41855434883541803	-0.23920689722848876
Si	0.9083530444365966	2.437567434393037	3.71892676189112	14	1.0515013432335116	2.078430632922368	-0.9562421482325574
Si	0.8093996756935775	-4.604296244612622	3.526388404184888	14	0.2534973577084038	-1.4630697418035552	-3.150091498750097
Si	0.9565515431462475	6.538004872784196	-4.592235720677627	14	-0.11248662908807451	0.7585298055448745	1.2333368534587483
Si	2.3520201524755584	-4.07027522929609	0.919804200788612	14	1.2963901261089956	-0.5875592721815196	-0.4801354065793487
Si	2.3545418443433337	-1.7947866910347159	-3.1100407279288134	14	0.45522345291136995	-1.2406968995482042	1.0111959249032743
Si	-0.049303287091800055	4.802781633592091	-0.5437342355050584	14	-0.38519322886436863	-0.6854451083775371	-2.561321235962788
Si	3.108251268002211	-4.041525960320255	5.783803000850943	14	0.7175011352880795	0.5599332597375924	-0.2722923947092183
Si	0.0287938568477604	-1.5170765803767754	-3.3797309666897895	14	-0.7964836909493044	0.0032611899880758233	0.7531538814309767
Si	-1.5149373533659596	-3.613853955436753	-2.8738766054892695	14	-1.6575769445991415	0.996729857929993	-0.968562884926707
Si	-1.14072719776249	-5.096603819480638	-5.239126474985863	14	-0.9071769740765756	-0.12168527259196829	0.8030988878275134
Si	3.9062869814044276	1.0412159851996055	-1.4644242486825865	14	-0.18150049520202124	-2.0046157418441086	2.1369708444041593
Si	-1.5543817665542767	2.9852095491619486	-2.901811402671269	14	-0.6314308135908023	-0.38170963826610005	-0.3952917592303143
Si	2.157207813301136	-0.6426053643954153	1.7193895904506318	14	0.3387793785145235	0.6562000709135128	1.6310292537264848
Si	4.653010971795008	-1.086321076439239	2.051483033075061	14	-0.11135868518412553	0.6768344766603613	-1.033969233165954
Si	-3.7026254359152304	2.4377398408311484	-0.5100446303199	14	1.3099833028260865	0.5535492052276648	-1.6588874369808213
Si	2.6358041221313226	3.590246163514704	1.957763289654474	14	-0.4806678824911514	0.31989666682229195	0.13563146206951548
Si	-1.4643955142762346	1.7389636662258385	-0.1602091780355946	14	-1.0185387445870853	-0.1631381752265877	-1.7479829211977846
Si	-2.920174670013304	-5.286604631853522	-1.8481395477389313	14	-0.3107903259993915	0.8634735829552306	0.5237392959248041
Si	1.2139820988109629	-1.687834258068298	0.04080186617804286	14	-2.1727889126191426	-0.5451206077671554	-1.2046638869284567
Si	0.23102363622735606	-5.99416758975291	-2.847725323184282	14	-1.1663325632630293	0.2571956356009048	-0.8395242511191151
Si	2.6700485986115514	0.8537338921697025	3.5607666442808927	14	2.878529555062333	0.8962402633762616	-1.067622687811904
Si	1.3707560290251128	-2.3461256358070335	3.5522800859911103	14	-0.4375951835048386	1.044631349818076	-0.019473294584269534
Si	4.108005486519279	2.5487249991028103	5.204775978454612	14	0.33619567477830664	-0.37445243638945	-0.8509451009512129
Si	-3.974470755152596	0.43300867773216173	-2.6031638181988064	14	0.9176300598661696	-0.2936523663774125	-0.09583615103479554
Si	0.5094798506088462	6.415632962864412	0.8988429467757294	14	1.1631292231446566	1.7124643867525988	0.6787702618559007
Si	0.5384718757762746	0.22653809631167088	-1.4211650953406603	14	2.172150764278682	-0.9721382639849048	2.822962312662228
Si	-1.864688584114406	-0.15374988165601614	-4.139023782755313	14	-0.5714006465759849	-0.5572590530941065	-1.0036445885779994
Si	-0.2560324781694576	-0.4474511848695656	3.178150188557107	14	0.31577518499409457	-0.9853730286203671	-0.6853510059228198
Si	-1.6730925167681951	-4.134965295568512	2.203395894407755	14	0.8926116624379365	-1.5320193302844987	1.4404699831499859
Si	-1.079175126832011	1.8990955586167626	4.727628280041198	14	-0.9718495288574523	0.8977564441835529	0.9192979358873495
Si	-3.583379631238208	-3.3891221633588557	-5.350051191920027	14	-0.9807440106019725	-1.0355705175593422	1.9990570121419486
Si	-2.6086243462472583	4.782051245671621	0.34056216576544135	14	-0.25091596796697513	-0.552093702505929	0.09263975290078745
Si	1.5091528201148507	-0.3171574963710522	5.137256068577331	14	-1.8141235771164659	-1.856913711628094	1.1329393044754779
Si	4.409707835639424	-7.426349852825513	1.366152578959225	14	-3.7689935732263495	5.861047464798055	-0.44968657760443104
Si	-1.900396533635383	-1.9245562243277072	-6.043423316447989	14	1.932403420711898	0.13191184400285727	0.552597639148678
Si	-4.371099692760106	5.228413495624611	-3.2871189841761463	14	0.1701979162146503	-0.7959833538540034	-2.4901355571849115
Si	-3.088659357078235	0.11653684374716075	1.122154862843205	14	-0.816499231645593	-0.44981307598618225	-0.5747227717601483
Si	3.5077387836209324	-2.885436754417102	2.8236290463542515	14	-0.4720572507739754	-0.9337524328866901	0.7773736935467717
Si	-6.6271181936141	-0.11728294747071077	-3.652830691390654	14	1.5888027055010328	0.4947968775569611	0.3118221105643669
Si	-1.8890127545120545	1.6788572331873373	2.272067162222307	14	-1.2471552590018842	1.9303853601461136	-0.4558304908774569
H	-0.5261408520849333	0.424628139493402	-2.565630738453687	1	-3.212474741353914	-5.055846955481852	2.701594057356234
H	-4.366930231314291	1.07010298115761	1.1611018735491554	1	1.9893171509681637	-3.678757803799901	-0.26071085079461126
H	4.519834925086924	3.350619049688962	-1.9566743547378984	1	3.469858581864254	6.825124542272699	0.6325659565896476
H	5.226214818117895	5.050454381196354	-0.7386456588393148	1	0.26332386513147776	-0.11747534474075781	0.2569117855735604
H	4.303607526447579	2.7252741459366296	-2.0939088886327832	1	-1.400207759389127	-6.554267852774252	-1.5269912767204168
H	-0.814882993098791	1.3055923404686842	3.2711416634029136	1	0.8456640506236288	-0.9260889963694567	-0.032955142440998
H	1.2022326991378471	0.6970521102241982	3.9814978037680238	1	-1.9473785665385683	0.3183969410890496	-0.20477414056000165
H	-0.22098442915297517	-4.393869232689959	-2.8396727535145727	1	1.5565044804693327	-0.514503114283236	0.5529138851030563
