72
config_type=liquid dft_energy=-6952.953347120875 dft_virial="-1.4965170201130944 5.782791185220348 -9.54403729577126 5.782791185220348 4.092974050009313 1.4553628020599845 -9.54403729577126 1.4553628020599845 -31.273464427813384" pbc="T T T" Lattice="11.0745633383 0.0 0.0 0.0 11.0745633383 0.0 0.0 0.0 11.0745633383" Properties=species:S:1:pos:R:3:Z:I:1:dft_force:R:3
Si	-0.586398128762985	-3.3905993862172665	-4.761342388852011	14	1.6506480728718744	-1.1006145970589802	2.602640955341823
Si	-0.1637152698300889	4.774399299027866	1.7705015154573596	14	0.19180857065155896	-2.238525133670964	0.29686367692227744
Si	-0.9976077400774023	-5.572321587552381	-3.621559404637513	14	0.49082863360584456	0.42293782629573845	-0.5910287217005274
Si	4.529009124577815	4.146128246282769	0.2278480661221842	14	-1.8083231635142116	1.2342817346639026	-0.4149704851296636
Si	1.1659300282562242	2.852453129919255	0.5245466925185795	14	-0.5290185464786641	-0.2886896188884626	1.164053021286186
Si	3.7857951789445017	-3.251237081168099	0.5507601839403357	14	-0.4882968661970947	1.882378967160969	3.0882800699694806
Si	1.4458728403217715	0.2847602471177079	3.4671689171382725	14	-0.5087286688447155	0.016038297876551703	-1.492925931002179
Si	4.869994929764072	2.690199702449821	4.763081095296124	14	0.840356260800715	0.005226285784265	-0.8091029329711231
Si	-0.9570748382592243	2.095783589829907	-2.8469379973767817	14	-0.41145295594116904	1.0223362671449439	0.8854506199002602
Si	2.2784142138418124	-0.4129815414485453	-4.091187337561463	14	1.0473654632155214	-0.3998624131579415	-0.03028324979230012
Si	3.980519226121831	-5.242742582604573	1.721131112095218	14	-0.02622398871285033	0.32546953760371294	0.037435036350824014
Si	1.7271445999879151	-2.716236000858165	-4.126637014807361	14	-0.7109589578009626	0.7288232546758835	-2.038701399294376
Si	-1.3404540719044937	-1.4109436675527731	-1.226795828363521	14	-0.06916504710677146	1.5986212424976143	-0.2049307208739987
Si	4.77021311408599	-0.751553091827053	-4.298104478974261	14	-0.46612108281081754	-0.09299250855071177	0.300867916347876
Si	-5.319876916255833	-2.3299773807449373	-2.363566531350001	14	-0.3383780289740484	1.5867033980071317	-0.9427037360587857
Si	-1.5166393000535083	-1.7318955876600457	-3.5971510670398996	14	-0.6074853384126672	1.136322879076793	1.0932550651905883
Si	0.8285988289716061	-5.672269521680539	-1.9303960609357347	14	-0.028140233507956698	0.5937957452460708	-0.2771764663753716
Si	1.184125535821051	2.959378038950541	-1.8218653402203948	14	-1.0516044445568495	-0.5674362592828487	2.527834131831051
Si	-4.208832423904224	-4.869828811313997	-0.9132749402562479	14	0.7856354262720034	-0.1357078238975239	-0.6800388452208618
Si	-1.3289254514693234	0.45391312754690216	-4.429216234336394	14	0.8167884809941098	-0.2867911147200653	0.2721800374067278
Si	-0.524192306491754	-2.9448703609773683	4.199075733603181	14	-0.5937728624087215	0.24982581931123232	-2.4663309785783207
Si	-0.22579927190459873	4.24351795627978	-5.6123893577103505	14	-2.9219904909519876	0.9779811008249415	-0.9730021553724745
Si	-2.747743133555628	-2.3374194873082748	3.5114560959281347	14	0.26087900108254897	-0.9237775726866436	0.17339380012759437
Si	-5.065449898121729	1.3541754558806476	-4.77750017676259	14	-1.1344729687989463	-0.32750071080662996	1.1657167835388538
Si	5.428451935224526	-0.1425074810372444	3.3040848974184667	14	-0.027425209118423513	-0.7790886207953105	-0.7795177382732432
Si	2.788320333627159	-5.346865627111271	3.7530698442798256	14	-1.0192542831976825	1.241164840716471	-0.3015916824954977
Si	-3.573351830425893	-2.682148494902877	-3.868976224178473	14	-0.13315651608834095	-0.1822394308710318	0.8284931808535517
Si	3.4752533483752317	1.6683275940982036	3.0977657824259377	14	0.8713715042776613	-2.181075842176512	1.860296257787281
Si	2.3036642182531364	0.7090932159880108	-2.0647194396659754	14	-0.14834197833019955	-0.15670398416291711	1.0105351508359963
Si	-3.2571730471174285	6.138940546193163	-3.1918552725481346	14	0.0637155893807176	-0.043149317924853124	1.0361477307037155
Si	-4.325624768869936	-3.212941241144258	5.103756812708909	14	-0.3707220196804472	-0.01702765920374468	-0.21467983802693616
Si	3.866894206270873	-5.56308540172824	-4.0696473118684695	14	0.42845670386543633	-1.0590519082271905	-0.8066932930650804
Si	-5.455363124136595	2.3018812135556703	-2.488255039975921	14	0.5331168883589801	0.48085300207420206	-0.7879265382227875
Si	-3.150148467016097	2.3713519493768263	-1.799937704810561	14	-0.1778618669529477	0.9627210765287987	0.7519621741150881
Si	0.7759060566079746	0.7815873076005225	-5.384474844208137	14	0.5725555870857956	-0.11877246737477254	-0.42523947977833504
Si	-2.2433521463127546	3.4790076253469153	2.0004094503604675	14	0.3844414376687573	-0.6944473194349716	-0.9159729824873342
Si	4.4954531976627665	-4.009667476828237	-1.3102094394275965	14	2.242979059417057	-0.2605835810812639	-0.6228194105420304
Si	-3.5880588505391553	-3.534502262235137	1.5421883176749664	14	0.32777504774428967	1.4148059811758635	-0.057548536159810426
Si	1.3999909244111945	-2.8092069600831935	0.7971249199641575	14	1.0555629183077497	0.6845321088783527	-1.5268802049705863
Si	3.497745786515319	2.3828916443753347	1.013245023511082	14	-0.6519896288412385	-1.315838223861128	-2.2356917756081613
Si	4.802639435540532	-1.9709843355706043	4.775473531671682	14	-0.4335814309895555	0.429075826026528	-0.3652540499960883
Si	-2.097777011230801	1.0543427280595132	1.4660728438508308	14	-0.9363428214967392	0.7860581159866358	1.988784160835297
Si	-2.9378380132575477	1.3540757848106029	5.352092821006948	14	-0.34945692179856647	-0.30209021981707446	-0.5648697819522769
Si	-4.916474872094917	-5.253208044959267	2.452905033800067	14	0.8009980376704203	0.25223494499621113	0.26635416986180427
Si	5.887304318020311	-1.675836148041571	1.389558685746516	14	-1.3580100075432606	-1.0487500034304211	0.5253876315455509
Si	1.4129370889536674	2.976233524351434	-4.756668923123248	14	0.5412510942603325	-0.9130660908123747	-2.8794955193311123
Si	1.333742886521484	-2.1391072816093364	3.002635283349941	14	-0.9460469443065741	1.938325961816859	-0.10642267719050526
Si	-0.15814476447092402	-4.659522853519681	0.2437954373293362	14	2.3969432737508245	1.4459106991179511	-2.6720757113966784
Si	3.254526226479575	4.136526599868463	-5.783258795456981	14	-0.9705709181817426	-0.8470316215434156	0.6903698035077489
Si	2.5679032995049744	-3.030222020625646	4.553018777895249	14	2.907771764310505	-1.0763618747950876	1.9991562568073065
Si	0.0935246873919435	0.7089603212279512	1.269510419159344	14	2.50254165457569	0.4859013673703127	0.2970505962790522
Si	-2.467667426730021	3.336300802169582	4.263363573782013	14	0.29133400071023496	0.8540247709036863	0.9288732463206452
Si	-3.0792934107776535	0.5077576544977167	-0.45290534228311685	14	0.5828415510295799	-1.582818972089452	-1.592404566944028
Si	4.452539264726854	0.9175718708315083	-0.9963120161668213	14	-0.873899929249495	0.2446954357554089	0.5742604870235857
Si	-2.0813977320534556	-3.358704643802963	-0.23423808916838332	14	-0.7229037988973066	-0.7786888139180275	-0.34104735051742613
Si	-5.02159462730206	-0.7555510091921793	-0.6510403549686421	14	-0.10462084658214547	0.2776906874394012	-0.35073527536374405
Si	-3.7741225891859336	4.07290323348993	0.21239905026525574	14	6.078760692881701	0.9869375462076773	-2.1365388987103744
Si	0.3590484179910243	-5.112262077352723	3.7092588717135104	14	0.2929509688460761	-1.44102688456233	0.5866928096886297
Si	-4.473946395659787	4.539075902652329	4.3902226968222395	14	-0.129545398666193	-0.679296052893871	-0.17354498112041908
Si	-4.892044385370627	-5.312357287749127	-4.774033838437703	14	-0.2765182634134137	0.467205575034856	-0.5747381983920692
Si	0.9148807519403014	-0.6495231397912951	-0.5717132577763993	14	-0.7617830251064578	-0.7550297598725568	1.0244425166232094
Si	-3.1678899174840534	-0.014607349043217702	3.4409997239698695	14	-0.5371712643383215	0.2923974098706482	-0.5136906450020693
Si	2.682292464226275	-4.084786239951925	-2.6505306165720306	14	-2.000724116831533	-1.1994124043120544	-0.008489018435532913
Si	4.423667878103906	4.367453394598694	-2.0581632981697022	14	0.514277628346659	-0.7988858746499187	-0.36483341716571205
H	6.02601100891985	3.879336478181453	0.5067565139719344	1	-3.659526450226257	-1.642634194699505	1.6708155658925843
H	-4.632483199672887	-3.656365649753456	2.7736155284265642	1	-1.3279864393882954	-0.506169904830104	1.319924224435907
H	1.0348171654377565	4.753652212069896	-4.9382906544150345	1	0.9396682891178189	0.8824216007225938	0.9099383411904146
H	-1.0845928978180797	-5.759697661954749	-0.08520769032488021	1	-1.2789017248318804	-1.145057180959868	0.037566419832683585
H	-0.719495553331676	-4.0833786629516275	1.480676870525047	1	-1.2220620424088349	0.3659629037328531	1.1418217020249934
H	1.4888498982687122	3.095093490292406	-3.2848782822208533	1	0.9199039454113085	0.5950658712742238	-1.2269548558330767
H	4.28894138526815	-4.61546159582192	-2.8886171165004733	1	0.6332508990469351	0.7962252948646293	0.08015549390827645
H	3.4584089375376776	1.1331814370085371	4.65888938849673	1	0.1457593030361108	0.22124284146714615	0.3298527579535014
