72
config_type=liquid dft_energy=-6927.980608723767 dft_virial="-30.926921780901328 -1.2031778137841966 10.360697840919471 -1.2031778137841966 -2.8945498000264656 -2.3156398400211717 10.360697840919471 -2.3156398400211717 -5.3104544578629875" pbc="T T T" Lattice="10.914011036500002 0.0 0.0 0.0 10.914011036500002 0.0 0.0 0.0 10.914011036500002" Properties=species:S:1:pos:R:3:Z:I:1:dft_force:R:3
Si	-0.7958169427484706	0.8320732874117236	-5.182027010185383	14	-0.7325734688958514	-0.26404274617899115	-2.0270959441002914
Si	4.01598498505676	0.8837402156585147	0.10307192022870601	14	-0.15086217576500868	-0.11280313215298472	1.451763306158204
Si	4.237855915417768	3.4849637780758522	3.5507752646259467	14	1.3115347077762638	0.036742123467044106	-0.5619343510082637
Si	-1.4930148817711273	3.5223879219200107	1.9048878302665642	14	-0.48451888403966914	-0.03417024681529999	-0.5597723085445513
Si	2.866139352306302	-0.8646516103556762	2.899950958497379	14	-0.35952614156386237	-0.7338199407550592	-2.991921727444163
Si	4.810797838789872	-3.3225742078637683	-5.674205251887387	14	-1.5644828773882842	0.9474307131898777	-1.664513015421305
Si	-5.022464168831753	2.3130281869875184	-1.3078805125589776	14	0.6468103942843321	0.26597853137453065	0.01891253651394524
Si	3.815625570448692	-3.7068347084368605	-0.9968530260408006	14	-0.4440807966749121	-0.5942426033507126	1.3072545887498135
Si	4.578438543822787	-0.07402973686057951	-4.8105686445581055	14	-1.4675223819969878	0.8023442684160498	0.7304106551005429
Si	-2.8017576012019885	5.136253647898302	-1.7236715910165181	14	0.18017251930416478	-0.3437832636885957	0.13965215656916308
Si	3.9428829391342823	3.086809741453296	-3.1326485878065955	14	0.87270230839137	0.4991608146168485	-0.41670315300491145
Si	3.0611290734844108	-1.4042294019891997	4.998289634385905	14	1.3138998675602682	-1.6781933526087491	0.5036689906851961
Si	-1.4246167746053817	-2.0448054517544945	-3.30173936079509	14	1.5516191232505192	-0.593276639081933	0.5273797239476017
Si	4.8623119708821525	-1.6684030391276823	0.5892801978937445	14	-0.5655333842354071	0.30566148510676017	-0.3409141672618425
Si	2.3746814353327066	2.6344239839903705	2.2807881983856975	14	22.150216057863098	-2.159599399437315	-8.561835994857487
Si	-3.1920535498782647	1.4325403466178808	-3.3034092044836747	14	0.036686844702660926	0.6182004198343843	0.4389409000294042
Si	1.4313288913928293	-1.5526381240635267	-4.428010729706708	14	-0.8907342413331645	-0.501602336228861	1.1967109439521748
Si	-0.6654381669064415	-2.816076783681876	-5.566232940703293	14	1.1073768611615018	-0.9397983870470182	0.23686667716608995
Si	-4.923310378565151	4.699147505886478	1.7268148261950302	14	-0.9724992471718535	-0.20804921451680627	-1.1422176522442964
Si	3.4487838314898545	4.996707102785613	-1.8490954058479763	14	-0.43444532237712524	-0.2037680670482277	-0.34027370492659353
Si	-2.1895034100764112	-1.1326233233348606	5.4238050966769675	14	0.42917584202348175	0.7910221490282457	-1.036711316989892
Si	4.1794550423614565	0.8728371186330511	-2.2382672113874933	14	0.13227539829512622	-1.1320700137667359	-1.0064761468670784
Si	1.997755150176143	2.101230888813199	5.658270795774098	14	-0.13044245731239262	0.25183925188744033	-1.0935024055223868
Si	-4.428480032181277	4.122560302828182	-3.1784437781157493	14	-0.6006667671036344	-0.1777402536713047	-0.15714415739372647
Si	2.0912118266816924	-5.567455309939381	-4.301702879981294	14	-1.0243941798431904	1.5220174734785903	0.3650501613442005
Si	-4.266723474609311	1.1169617174974833	3.798021270646818	14	1.8267435904698803	0.23682399681777555	-0.33076472901055787
Si	3.78610317059496	1.0271284926560516	3.6901799275951617	14	0.4501447485724814	1.1148454078954677	1.1400795210600612
Si	-4.515879432561569	-4.170854801664695	-4.459617705668411	14	0.731158332527642	-1.5080707697799791	1.729290728409776
Si	-3.6342128789999895	-2.389393522209909	0.6889032906349165	14	0.28649415205558815	0.06884288761015689	-0.40168815504577865
Si	-3.3102413753925237	4.60225291590443	3.3064214715297484	14	1.2688546165723378	0.28537186458334357	1.2111854955730124
Si	0.812177045292184	-1.5596776611820693	-1.4748539674063912	14	-0.04123075913495862	-0.03304435979560714	-1.312852913473904
Si	-3.5752444773697802	-1.3920602796835022	-3.0073229990744657	14	-0.503510353486943	0.3097130328702494	0.21563448943230715
Si	-4.303536433835426	-0.526426408334541	-0.9693933742729666	14	-0.4905725515159578	0.2117202386929137	0.46099018503393
Si	-2.393955578823166	0.47579631113621756	-0.10411966528821001	14	0.3294454948707899	0.2612415269326898	0.9083393707918144
Si	3.5105134779122986	-3.75267355479016	1.9164566819652542	14	0.3397306874829783	0.9692691675581517	-0.13862731398855205
Si	-4.842655837005416	-4.701690470457982	-0.7636642662349417	14	0.7193119647650597	-0.6965908499403791	0.2647528854684161
Si	-0.40714718171663256	-0.8288645681669926	0.414099406746883	14	0.5935329782823516	2.020338050876814	0.26321587870803154
Si	-5.180248026386434	-3.017909589779871	-2.428356541610214	14	-0.06902235076150323	0.058357405893529016	-0.44700157231860044
Si	3.926479180546423	3.522224211754463	0.05998340465660401	14	-0.1372759410322822	-0.42745680100643074	-0.9953710287682951
Si	-4.139553418012013	-0.10821241942689752	-4.922928388178873	14	0.4609045672267691	0.7765226576858026	-0.055163578864841065
Si	3.315851177065284	-2.055883172956542	-2.337246377477512	14	-0.819832669693165	1.959749182675929	-1.231198208053449
Si	0.22888863945747803	-4.8291770333753385	-1.3566333998590232	14	1.1054814423194885	0.8149136309946576	1.5251691343800278
Si	0.046417288938234505	0.5619624282693851	-3.162607548101788	14	0.010211659000032127	-1.089026882491605	2.1383756963510887
Si	-0.31031807580080456	2.7056269919924967	-2.3168699188723663	14	1.0141393262737797	-1.600721578433643	1.0705416636818683
Si	-2.3146107185878106	2.721048489587071	-1.2349421768020483	14	-0.9133702525717483	-0.3543139968588582	1.2578698262025372
Si	1.517069362095573	0.7500217524393167	1.4602182786064446	14	-0.46200551452485655	-2.1982585390310616	-1.3395304451652283
Si	-0.559801454084158	4.756424235806029	-2.9480053490910887	14	-0.6470448790895296	1.33660966952154	-2.3019139355654916
Si	-0.05881560547569851	-6.223736621586199	-5.404869287528641	14	0.07292580285855205	0.5653099551830861	0.35905691484293534
Si	0.14513451876337702	4.8049042728301625	0.7613832379283132	14	0.19669187098611618	-0.14011187020040555	-0.7239623229576115
Si	1.4685020129831483	-3.988165170924721	4.598749518361714	14	-0.40062037500632114	-0.5679347966044253	0.29420104025273214
Si	1.2273460251206443	-4.370122815169111	1.9192943248347445	14	0.36793776972925885	-0.08442944228195859	1.0511740415262567
Si	-5.171702355744854	2.3064142962993994	1.8616465185399513	14	-0.21444895276918685	-0.33892850262309204	-0.5984126790694607
Si	0.6034356702080851	2.0380605929339373	3.7696884979960643	14	-1.1854623581765271	-1.5747521291474875	1.8693961708468811
Si	3.0986077873837523	4.807851055810017	1.783906017926962	14	0.6173141598305293	0.585864399554478	0.6102148238205365
Si	-1.683966418865731	-3.557629263556869	-0.9307141191596107	14	-2.1431001023768608	-2.984921121878464	-1.167475419577835
Si	2.2994075012139663	0.6543931877375035	-3.5874354276975504	14	0.31883917120411503	-0.947259220465024	0.4478173840366833
Si	-4.913869759018578	-3.754976411118862	2.082273251642799	14	-0.35677274487651583	-0.41025919174102427	0.8520236796330151
Si	-3.119137042143408	-0.8638767155720847	2.590473261546385	14	0.14801081996496446	0.7142103775888218	-0.36689930029045104
Si	-1.5503352677348254	2.9448293718794667	-6.587238673167868	14	-0.49601840969456346	1.1541552942457438	-0.1984008846924186
Si	-3.527375624963691	-3.8843620119565694	4.3951377284647695	14	-1.4586474406529006	-1.454766357172137	-0.20081386703537757
Si	-0.38968476405823255	-2.8466360145840763	1.4384229985665542	14	-0.6919032107206852	-0.5816863534092374	0.23373584221774563
Si	3.41521233354158	3.898561140315056	-5.2988614983311155	14	0.4751546613531578	-0.6018235073871692	0.3424133787740208
Si	-2.0325817593936146	-2.9813367387965597	3.080425044996943	14	1.0577496433825355	1.5147577004966202	-0.26152357718631003
Si	1.3951489448068317	2.916191006919691	-0.14140192698889403	14	-0.0019334712007513554	-0.146509808679062	-0.23995354621345977
H	-0.3228091614320788	1.9960962204985948	2.5151054669327304	1	-0.3748211328923593	-0.19611645761546706	-1.2038223641571724
H	1.4134102680731035	2.736161120669313	2.6337898799491497	1	-21.673633661725663	4.236228201751324	7.827754315580835
H	-1.586342772946446	2.5820159943942014	-5.0658484541029445	1	-0.28553230155532083	-0.18859983121201412	0.8269227497240055
H	5.4351174691163004	4.031513439959492	4.366859525869198	1	0.8487532336657867	0.20595607767567375	0.11833023725970705
H	-1.4663661410233053	2.6052366442754584	-3.620369547401293	1	-0.18591996813682377	-0.10802704691027765	0.23122670053581315
H	4.177398842682179	-4.901912368526989	-0.026578891077188454	1	0.22508021615746715	-0.03774254054711373	0.8620964989457591
H	-1.1017846937501263	-2.4013159878661816	-0.5177170275274141	1	1.3169797946232737	3.570944158631195	0.6859662714259313
H	-5.489003215806812	0.283854873240603	3.616381567768556	1	-1.1390983872698925	-1.0638300503541538	-0.29799342059995054
