72
config_type=liquid dft_energy=-6951.204783631009 dft_virial="6.853897404226049 6.75224523656975 -15.07247515923793 6.75224523656975 11.82595905471484 2.9352063410756717 -15.072475159237928 2.9352063410756717 6.767493061718193" pbc="T T T" Lattice="11.1438855253 0.0 0.0 0.0 11.1438855253 0.0 0.0 0.0 11.1438855253" Properties=species:S:1:pos:R:3:Z:I:1:dft_force:R:3
Si	-0.21100947242155552	-2.965053621716571	-4.430039956758034	14	0.02052976176031838	-0.23915856044847	0.16652149271737055
Si	0.0175293319312969	4.536798380090408	1.4790053430322907	14	-0.0808232099599189	-0.3525031673818779	-0.06484121928987843
Si	-0.9611712704426503	-5.2218575988727	-3.6548044163050144	14	3.4499780241972724	0.2446434994279419	0.6481417126191048
Si	4.389286767392012	3.9930547736544457	0.4230887578535398	14	0.7963625918887253	0.25349067283457144	-0.05523377004008111
Si	1.5218758706481197	2.995208975948033	0.21339426392396968	14	-1.2845211326195962	-0.575254733450887	1.1349738201153112
Si	3.7723835524824545	-3.9210429853899567	0.3219914283680182	14	-0.16242032262120237	1.4924716166921086	1.54100714315214
Si	1.595091198549341	0.2707852743792647	3.358822816753046	14	-0.6907040471993681	-0.6878125821563295	-0.45373375448887615
Si	4.529008804108224	2.6035013997337377	4.828801612509844	14	0.6426102366333383	-0.09259938654726113	-0.9929189656244698
Si	-1.3841040138988359	3.1966012751612545	-3.196690426245457	14	0.25282321389346096	-1.6832214061728308	0.2702604501747053
Si	2.1629836049186286	-0.32428706878623	-3.9058873010755484	14	1.001244204651109	0.16436844912227855	0.0014943264120700634
Si	4.073223886123453	-5.422570121068879	2.0835611327798156	14	0.3712809779770474	-0.1116409925482778	-0.5780585238025084
Si	2.3165686352283137	-2.6332667179718143	-4.327148461702939	14	-1.702085863017289	-0.38656877021064784	-1.4888214184690944
Si	-1.6559925329451055	-1.4519368450913368	-1.063605866191208	14	1.0608079731608517	0.792206143028174	0.2494229271075651
Si	4.607116297755051	-0.2675201159203518	-4.288579473899876	14	-0.29560434953646886	-0.9468851246409427	-0.5549175474790476
Si	-5.6551095803253135	-1.7667850428376377	-2.5592936058548728	14	-0.19458407884465878	0.13404329031326	-0.027722943114496662
Si	-1.662634288718184	-1.2054229533861758	-3.4621934988857292	14	0.24846776148113014	-0.5820977302604611	0.1726443229267712
Si	0.8716078624758142	-5.8582068940239065	-2.173570296167664	14	0.9183227156394175	1.7108127086949358	0.7308559705419925
Si	1.2248021703146725	2.9178592665169254	-2.1885365344281418	14	-0.324237978155362	-0.21156905770008902	-0.39565094264353895
Si	-3.700293757019289	-4.961202116435934	-1.197633377403991	14	0.25441369964450455	0.031294465514714355	0.8090437975487597
Si	-1.4292478941618263	0.9784108613502894	-4.486416873630527	14	1.4451319113164782	-0.682716651411796	0.6461537339855663
Si	-0.4609668247540345	-3.335654678745948	4.413279552927984	14	1.1842909625926674	-0.31088828511208916	-0.9240534522874955
Si	-0.8694570925694313	4.387514889593489	-5.590229878797017	14	0.01772699985082496	-0.7639047012166439	0.114787511239075
Si	-2.3833873728380124	-2.214145183365281	3.989622456912653	14	-2.286451822391185	-0.2706155198194177	-0.3803814052577115
Si	-5.143772392996923	1.6218588115811114	-4.719836699843461	14	-2.301973328098387	-0.08634260175068077	0.6723939206619335
Si	5.616105980986765	-0.6185859416238777	2.821174915699423	14	-0.830786349688592	-0.4789167026575984	0.01686156580006312
Si	2.4502729737608626	-5.362838894653271	3.9259574389066145	14	1.2152822947901363	0.6635063809017776	-0.11821865128881262
Si	-3.690542857184652	-2.3873991716271203	-3.578424224914608	14	0.6618709008076314	-0.8888447360333878	-0.5953144971586822
Si	3.811554310103884	1.0761538812926956	2.9602728948262174	14	0.8371737466354359	-0.20061897725211036	0.6938701062905985
Si	1.8288453413280337	0.49279376181429135	-1.7540810133387958	14	-0.7232035897776359	0.10260175757423319	-0.644810074345257
Si	-3.224338406233726	6.201393992661045	-3.5150043723901256	14	-1.7860226815199074	1.065986436386162	1.7796152299515664
Si	-4.472275282898921	-2.928757986560669	5.400638954355088	14	0.8588921303852587	-0.524311366858537	-0.02954200012850143
Si	4.071552303294659	-5.981904023354737	-3.9923192772097758	14	0.6286676467032392	0.8514570080204544	0.32187436103454986
Si	-5.343626836007654	2.1078102276828687	-2.4295787783403804	14	-0.2520788789032781	1.13467634322977	-0.9822180252820134
Si	-3.2174849166356663	2.610354889331797	-1.683428779108394	14	0.18677640331896508	-0.2714362166376089	1.107813691955395
Si	0.943073600349563	0.7308383005202246	-5.515398687494628	14	-1.506190006238291	-0.26878412149987624	-0.5629075143719398
Si	-2.1500344099382303	3.609894557638055	2.0272622231060002	14	0.3748283319872557	-0.6877141088225679	-1.0725399267366875
Si	5.103977577786077	-3.9976237667198182	-1.5440076273013656	14	0.03630709244687506	0.2902991308188753	-0.5538546525396986
Si	-3.468021751015461	-3.4125586327560433	2.151182230147336	14	0.4941013935678611	0.8135866835389293	-0.6170747899252236
Si	1.6906834485853641	-2.7235767662688453	1.0880666949192415	14	-0.052030687032240626	-0.8414903753574323	-3.0922480568100656
Si	3.5458060719820557	1.8985392014032596	0.8257730613102553	14	0.1008150964872623	0.22595850573482976	-0.8347368530129994
Si	4.79538109981947	-1.7405523363110815	4.820287683968515	14	1.5241921143583717	1.43221416396699	-0.07594942271504619
Si	-2.11809603402272	1.1673331526607003	1.5113448988267113	14	0.052815388375949825	0.5381727098605193	1.153569596453814
Si	-3.228138471197853	1.4047536337772168	5.390052263106053	14	1.1117824501275755	-1.2634290701257613	-2.293606694276093
Si	-4.59967218222415	-5.438684179538463	2.2499393436725446	14	-1.3190641897063173	-1.2221718286060053	0.6549106615954586
Si	5.807591365967994	-2.3152759445073787	0.892034604643689	14	-0.45567185367920376	0.25725040014422396	1.0656907592743448
Si	1.0087222299791054	2.932480044326119	-5.168756984344646	14	-0.23856772044589997	1.2168686667726678	0.9937856852278916
Si	1.452494039367602	-2.21540444242964	3.22096180891956	14	-1.585526088881036	1.4807399202268052	1.0798894312943306
Si	0.2127033430214011	-4.642509278183404	0.1892900395327458	14	0.8001824830628693	-0.2099384627060511	-0.5533039217801227
Si	2.9147946979974684	4.0961468586489955	-5.669474048767426	14	0.07174335152181595	-0.06828804308206894	0.011559689519385762
Si	3.0089270990296773	-3.0107769840268768	4.561114338306613	14	-0.6683320884771636	-2.0181623815549052	0.013347893269548753
Si	0.28162827499538157	0.9985924380366077	1.334781176563858	14	1.2532343804208421	0.2490658005785966	0.22640819205532364
Si	-2.7253375001818427	3.339599614221904	4.274716480306403	14	-0.1658488915656198	1.4015768729721056	0.7371927167140295
Si	-3.140569818740046	0.4918130998880649	-0.4144968221135335	14	2.060856613838092	-0.15589022932909027	-1.5620164160546661
Si	4.070605073025009	0.7800385551144241	-1.326010938655447	14	-2.3894922105330356	0.30119393250247084	0.33415858803315335
Si	-1.8627896166380975	-3.609705111584125	0.12965910808686548	14	-1.327787435836516	0.09429245940057863	-0.6993095367059037
Si	-5.197162748548635	-0.41869806695657164	-0.6226311720695615	14	-0.1774402056804434	-5.00697821377233	-0.7613150839381908
Si	-3.807386496917422	4.244093082882879	0.3958642455152319	14	-0.7768607580354021	0.06327670170256833	-0.6172938480985002
Si	0.1694873549542877	-5.785348170459495	3.652475344230227	14	-0.05743926418370413	1.5319653370727753	0.481305002389484
Si	-4.9565551161718835	4.332820699435318	4.426418193962312	14	1.181189438244973	-0.030158294073740922	-1.2637391454273712
Si	-4.941299136887747	-5.254832356142064	-5.0068697593186124	14	-0.8223916908183085	0.30734247376507295	-0.43047013644164434
Si	0.6855606936309306	-0.7887419297096834	-0.15405307350174718	14	-0.7596091555582725	-0.6729978733016363	0.11301524834189694
Si	-3.2492449903827714	-0.0401959950897571	3.26942656706909	14	0.185558727839343	0.12418618673687631	1.1187270055972953
Si	2.994228314021806	-4.286161250740887	-2.767840279575337	14	-0.7003845158402576	-1.345884674853442	0.5344798312891906
Si	4.510131062028366	3.971558218476142	-2.0033920203108075	14	-0.5690262308128282	0.3591443324238204	0.41545025338240327
H	5.502008194647427	0.9634490806440217	-1.0526804008222037	1	1.9866198043767966	1.7804544387280623	-0.03153280697789208
H	-1.3566309929133138	4.54651139071426	-2.41180985287029	1	0.0887131608558573	-0.00036869650290923456	0.16466232646037146
H	-3.7044392824347008	1.2788801036032957	1.6280626126530457	1	-0.5393109381857488	0.29824616025292106	0.21554012986705773
H	-3.3178913252186195	-2.88561889130368	0.08785282153870255	1	-0.7397324545492718	0.13650872320475002	0.25147826870049156
H	-4.929379636929887	0.3695925353893372	0.5098271908397123	1	0.2632816990042273	1.6233514190194585	2.9122480586728825
H	1.8779798469976339	-2.394125620930191	-2.8982783452604206	1	0.1972809112149621	0.13503882229322134	1.3685026883547848
H	3.816150048494518	-2.4364211240529148	-4.266104485572451	1	1.1754237345645409	0.039637188057530845	0.8148840632834761
H	-2.0679764088726835	-4.83756962164115	-4.54931296353532	1	-1.2453765683414058	0.7982333281196651	-2.430205406167048
