72
config_type=liquid dft_energy=-6918.628404034031 dft_virial="-137.3154980376194 -2.0739911597878318 -5.322379813805524 -2.073991159787832 -129.02126172443457 -0.8771254279936039 -5.322379813805524 -0.8771254279936039 -99.80131877197373" pbc="T T T" Lattice="9.799987616100001 0.0 0.0 0.0 9.799987616100001 0.0 0.0 0.0 9.799987616100001" Properties=species:S:1:pos:R:3:Z:I:1:dft_force:R:3
Si	35.22179249145845	25.075316513203617	-11.588495156025868	14	-0.432288165013521	0.39973205811820994	2.0024179610164463
Si	23.80945211283198	6.088693105932466	9.633662226279553	14	-0.13082143823658246	-0.20310266499137342	0.29454788236042007
Si	2.7226031595420537	-5.713765179715712	9.367043763195934	14	0.2516443621041731	1.003258922779977	-0.315452511276416
Si	28.18122658837419	6.88796049592635	39.8643994247592	14	1.5801293388140452	1.4944056021139243	0.7362612052565398
Si	16.497671552472152	6.168504205077984	-8.131069325053403	14	-2.564058177576085	-1.2477517554361583	-0.08819868268129566
Si	22.528299731779224	15.186913408831163	2.5657445577587574	14	0.41275702055954816	-0.07176212059065304	0.9676167181688924
Si	2.5977219173500914	-11.703086411220925	0.0956968790712165	14	0.1692399223723631	-0.20599464425547598	1.1401893072572316
Si	16.75155003165484	7.980120115802615	3.873592105077767	14	-0.18740632412240138	-0.8386256498097233	-2.072243525079964
Si	24.17412925200229	9.300266647579829	-0.409247482848336	14	0.8018981816430042	-1.259726678464748	1.0123657778239417
Si	27.099670555098548	4.227763657523621	10.173288744372483	14	-0.16796413991250564	-0.31741195064090083	-0.08684705261449384
Si	18.501357420484727	-8.310379698465184	4.546527854712505	14	-2.9197001503327997	-2.2009204043690103	-3.0964502713453155
Si	11.7078198052395	8.925299521412612	17.661753281462975	14	-1.0653014939288745	-0.8390442257558435	-0.3755492699190252
Si	7.861461865746876	19.00003959031759	-4.3951964459446895	14	1.549653770343798	1.3588911253364755	1.378401958058419
Si	26.911677392658902	22.941947409067193	12.503333799976419	14	-0.057218920457767435	0.18362962751763587	0.6609977534409093
Si	8.526410625474494	-4.622085759232637	-5.8292384337962195	14	-0.02124350059719149	-0.2859076829320624	0.27026019306417326
Si	22.682002737550143	-9.241878321363107	20.761263964720236	14	0.049210698717102215	-1.9384465466563738	1.6174653876100433
Si	17.444546355939735	28.022799988572316	-2.16677726191971	14	-1.853261456520824	-1.012023306595298	-0.12817911329906628
Si	1.7743171578577535	22.944172006256046	32.854380083074325	14	-0.4033493461931263	-0.15651115126390605	0.8901151191720729
Si	32.718199455161	2.7781984892881897	5.820977044235846	14	2.225602501221368	3.068891621860776	2.044604399998904
Si	17.07889901799543	-3.359180955121062	15.605323880100551	14	-0.10933393974450892	1.8167029099736383	-2.7115840870776697
Si	11.426226961078482	4.532994071814671	-12.252757916620357	14	0.21585714715303198	1.2270962666256846	-1.502111976090004
Si	9.448099460768699	1.8979832015853195	-17.47416191851559	14	-0.19491189477297766	-0.14216284091428766	0.09378672298410551
Si	29.42135622126595	14.01843148540071	1.7619103735357708	14	-1.4813014496287253	-1.0293435575844754	-0.011090205687926723
Si	15.517192591468964	-19.546692699531267	-4.329624728805364	14	-0.32997617100886845	0.10652140763479893	-1.4129321596185396
Si	20.226106240980247	9.75694607049009	-4.082488641102555	14	-3.1873900094084213	12.278534314314152	-2.3538525770272707
Si	51.56264464209777	-7.068780067431011	-8.426303751976032	14	-0.3064646984087744	0.7962615474496435	0.7808161464599179
Si	10.125053205326036	32.51602571064086	5.523126020619719	14	13.3091184302156	18.601271047682687	3.654104760437661
Si	5.002883878031435	-4.867007049734208	32.43150081745199	14	1.9604631786233337	-0.2856816827744214	0.22864145413640427
Si	9.36962115993897	0.03490755588854821	7.990674702465155	14	2.388132610039741	-3.047994963371272	2.6231810015234225
Si	21.86211617361198	27.569893560894254	14.584841369648442	14	-9.876166008337815	0.5727751594801361	1.9777314932850447
Si	25.42155007568043	24.168249259432635	5.974562450155366	14	-3.567563412245733	-0.10368033625603533	-2.401565349784855
Si	26.899790007680572	19.935820807803747	-7.314367757090476	14	0.4316127356459181	-1.117798836576722	0.34073984632113635
Si	28.298512840163674	21.368823996967972	7.147738567653929	14	-2.345181010114007	3.3951947118092813	-1.8058001378635502
Si	24.393893974293338	13.315429373759777	10.543395076682115	14	1.419789554617907	0.2206232050849905	0.9528207783830365
Si	1.1187763862415923	2.296117498476998	-11.762435136224026	14	0.6875189619287686	-1.209822038421738	-1.1501520832622731
Si	9.804044810973066	3.874082104458572	18.747699709190634	14	-1.7793390932401825	1.549323383310159	1.457994894122647
Si	5.17884265567851	7.851995077709723	27.27246393674562	14	1.7464394866740995	-2.5520164058091717	0.30007575879873843
Si	-2.034369629238583	23.429653592770023	-13.233413277400636	14	2.992202235034591	-1.5597759548786887	-0.10385414297567733
Si	9.868763929189791	17.423819382131686	12.685280370056931	14	0.4751760015273151	0.2448000797419389	-3.659078306568955
Si	25.445638445240803	-8.474333491282538	18.846473784373305	14	0.13754950663834595	0.42081640729608427	0.3974368323989138
Si	14.497768479679394	13.010532159047674	-1.6555217079753892	14	-1.4964468026275897	0.7769810857643851	-0.01607557890369385
Si	3.9922699551087377	-0.40342629020437265	6.787716422601264	14	-2.3073001441006697	1.61233628960688	-0.8422023144205816
Si	20.76135216460878	0.30797441082355864	22.71024630185974	14	-0.11846676295220691	-0.5422389129243335	-0.45739346580157497
Si	19.90997824046009	-0.8433869342415661	0.6771399443220457	14	-1.1980980552723945	-2.2786495461866636	0.5816429017293269
Si	27.758327722776627	-3.7205358984895174	18.243451146391823	14	0.09749657085054718	-0.9544135781288682	-0.7628852579572052
Si	2.870906372136495	-3.03973075879905	-2.6031805104522596	14	0.43633328501371	-0.06744034965801612	0.06609000514387435
Si	41.47595838828877	10.981356523245625	24.627153279531747	14	-0.045759761156399466	-1.7176089113876831	-1.7429600098443432
Si	30.266017153897607	26.12122019153189	-10.648774343518038	14	0.01334197972731241	-1.0510483144761016	0.10118662120602367
Si	5.529398012694023	-21.096403941215623	-7.9553359471214975	14	1.030237530904291	-0.6604706768502789	-2.28324179739898
Si	15.046636386094308	-18.310238061995545	-7.989243904273204	14	0.6224340018545401	1.1209399559463469	-0.7755649209540476
Si	5.937861496533071	11.708055004942288	-12.82707639087428	14	1.0485108906356475	0.32656071470158377	-1.0173316106392756
Si	7.457643576037859	9.153894032545761	0.09767647656966871	14	0.391796855768637	0.01411896775506116	0.8910435453031784
Si	8.042340237177234	11.640317490539804	19.164042383073024	14	0.5014092462193179	0.5638603660035868	1.2625155564055128
Si	-4.877708636210989	12.459596455245766	-5.887264160471147	14	0.9947336517594303	1.2552933215612168	0.27027433414343405
Si	30.64987286883263	15.831389994428747	1.4232522014862032	14	-1.0770781847372808	2.0066227466570163	-0.7659477015040337
Si	20.694104649587103	5.494441456867395	-5.06182100355466	14	-1.9345441230014533	-0.6701771136549018	-0.6280888908956738
Si	4.194051700124237	10.263448630440601	-15.90057790699841	14	-1.9335218515261625	1.6893879451726739	2.1331609805407643
Si	-8.747037746675753	-18.462363269760267	29.59956899606473	14	-1.641663345330617	2.1713071846231413	0.11143710389639004
Si	9.634544225165001	-11.95071249830454	-14.610889736732037	14	-1.797542776017363	-1.5190190504542338	-1.2082768041243288
Si	29.395768453600315	-12.127896274403627	-2.7251315563470078	14	-0.4563868780687369	-1.4231301917603751	3.350616630658022
Si	3.471900412681444	14.874921003085003	-4.664686305399823	14	15.009968362905493	-9.05111013818677	-0.815317551640453
Si	4.8879594232574295	7.303234971158588	-5.1695228674555995	14	2.6121969824852176	-2.4624105571861588	1.738181610606848
Si	12.682379573722566	20.608413557871923	8.618648108917226	14	1.8650481746399787	1.7491322052758906	-1.3045515857267418
Si	32.88231004778021	-1.8875952147122534	-16.615242003902505	14	-1.2484696080415438	-0.8921180102164682	-4.37821363639852
H	34.07916391535803	-0.6907413471344309	-16.615242003902505	1	0.9154001402220052	-0.9860212042715765	-0.5640043479015149
H	32.88231004778021	-1.8875952147122534	-14.92263518279027	1	7.660115934712395	0.5418427055944985	0.7757865502326442
H	17.274817430420217	-4.280459170934153	16.76147153911738	1	1.2037562867504445	-0.9691336703077797	1.1592463398901691
H	22.15393432485164	5.689606250244503	-4.588662901467928	1	-12.28019036325086	9.017036050710441	1.5159792326342227
H	27.116071814372848	21.274622596006974	-8.176365847813779	1	0.21499994063929462	0.847681082747285	-0.4956939362031607
H	10.621033518573142	-10.964223204896397	-13.624400443323895	1	2.856243214147289	-10.982383043889397	2.892629496638025
H	19.303547166785734	-7.50818995216418	5.34871760101351	1	-10.635329334233575	-15.017055871831012	-2.541349146946409
H	17.383951072511866	7.054783725117697	-7.24478980501369	1	0.8730193256773443	0.43810451946875995	1.2016760054359128
