72
config_type=liquid dft_energy=-6931.196066733907 dft_virial="-75.95012016079492 4.208897615624711 13.306418558060585 4.2088976156247115 -88.85590568378535 -7.319430505888535 13.306418558060582 -7.319430505888535 -83.97088355279503" pbc="T T T" Lattice="9.90122247339605 0.37328966375861156 0.0562897112016954 0.3734382899983626 9.984720694888162 -0.14749668032889238 0.056834674080782396 -0.1466049228903864 9.935049805563379" Properties=species:S:1:pos:R:3:Z:I:1:dft_force:R:3
Si	-4.473145478131545	-4.029033429448385	2.2555389335203975	14	-1.559199513065912	0.6853389217278151	-1.0399912760468049
Si	6.491573044644385	3.7883718769939754	3.3734847012538545	14	-0.29089974102166194	-0.743105487618774	0.39886996650436435
Si	3.7831798670186743	4.030650482936876	-3.0296250146491372	14	0.32191344183541615	-0.4170769917184609	1.4810399682176663
Si	3.451491678607966	-1.0234908198469013	-1.973573158197587	14	-0.9031773626405533	1.2481253370391758	1.3369621680609323
Si	-2.7841529262347873	-1.1278759822320203	0.6401966284698507	14	-0.48644618458765215	0.10180420070392326	-0.11070742420653204
Si	-3.156431931563092	0.043424623888848844	3.653867111702517	14	0.3809521906387844	0.56495951352795	0.5103842035603589
Si	-0.4614170971981678	0.8307017792162891	-3.1722457634725987	14	0.6153408364973156	-1.0983800494252394	-0.4927857589755413
Si	-0.9051724429059252	-1.6547629380405038	2.2808618722491727	14	-0.08085920543440096	1.6624077943851678	0.6793153361837722
Si	-2.9110767624573466	2.3912654065026087	-3.2114424662613303	14	-0.008999897062646334	0.8592186607609174	-1.9819553051049839
Si	1.8500667346477029	3.8163799964542524	-4.1858965354063855	14	-0.2883633456233358	-0.2493614776904136	-0.04353858327032354
Si	-0.17262343242119646	3.776046798352225	1.3134992564234373	14	-0.18732533430481674	-1.1907071559190971	0.2832180496566555
Si	-5.747562969391658	-1.6919343606022288	4.019482707281986	14	-0.8093407602132366	1.76429607023306	-1.224080360085151
Si	3.1139297812022977	1.2296066799751864	0.9455551830878702	14	-0.7419880852466377	-2.39996586516519	-2.1071485937957624
Si	-0.8729512649695067	-1.5850740759044564	-0.6791812911565381	14	0.22408339862484572	-0.4748893232841185	0.436473153143126
Si	-0.9413569872357037	0.5474023311021131	0.7995417926316929	14	1.3120931518518002	-0.512245169591082	0.24970780557703753
Si	-5.02611534817473	-3.5669128347153953	-0.6271313911541394	14	-0.20022688369078775	0.14869267709586775	-0.2538434284844957
Si	-3.052674962751321	5.740259475970293	4.157719972874391	14	0.7044589464410963	-2.268310874583816	0.49333057619288073
Si	-3.131929409677742	-2.291045742196911	3.2364473448370386	14	1.5860027718073915	1.5902718350809653	-3.984278649445649
Si	4.2936872203649985	-2.9278982802723643	-3.0275293846686484	14	-0.15096579130941065	0.7513183693429231	1.242484589077303
Si	4.5474576071654464	0.8833025871473646	2.9270818267953325	14	-0.5314878360281342	-2.0672681791749454	2.586717842983614
Si	-4.062387139331706	-1.3988622418036252	-2.052126089272384	14	0.8921565767962705	-0.10654043381416803	0.5625884402017094
Si	1.5641484921891138	2.560067162879008	-0.1919279992816547	14	-0.7101860835417261	0.8299139736534658	-0.6877279927912967
Si	-1.4592797991040052	-4.240320491878406	0.037175385928118455	14	-0.6863748200613028	0.097284968882699	-1.7977533495430829
Si	1.694523429698691	1.8537576196015193	-2.9276158904168375	14	0.36058517984523136	-0.39101395419865187	0.3734504766461883
Si	0.415069490594216	2.8069284112142308	4.121704862457928	14	0.11571645159124451	-1.0034820947217662	-0.37293548425056267
Si	0.8157975398940589	-5.23280688727165	3.4768413700598964	14	-0.6861107675449236	1.3805575727588313	0.17398309746697233
Si	1.0620850909438426	6.184812449164714	-3.852343583107601	14	-1.576200432774327	-0.5455893202670185	1.5172424166780114
Si	3.072977307101308	-5.122581704505916	-0.40837437391423265	14	0.5721676072929852	-0.4574767696139477	-1.3748893139700327
Si	2.478366328046285	-1.6444581854177676	-4.128133442747958	14	-0.19389476550832707	-0.11941447237321352	1.6179189305885173
Si	-1.977288814191362	3.414761180557502	-0.6317199785960521	14	0.5841150194946492	2.7102967346438716	0.7520673323226822
Si	2.857201732230805	-4.459458983133675	4.451709610993057	14	4.766614062039243	-0.3571051887944109	-3.3877557327864967
Si	0.21944267962595812	-1.697554414148013	-2.839981896093255	14	0.811898752896252	1.3078634264896247	-0.20439053164623555
Si	-1.562653312217219	-3.239569486713408	-2.3499116415542907	14	-0.20094627895936518	0.06949029192977019	0.5046632371124974
Si	-1.2189650412090147	-4.809546109183958	-4.8118686418904675	14	0.6523963777028857	-0.5106567407242946	-1.2925715204875117
Si	3.4754056405839013	1.4294762746675362	-1.4101102756279809	14	0.6719750876052814	-0.010568528418468679	-0.7411100527798071
Si	-0.5799613860235654	3.138178647638473	-3.436277305865455	14	-0.15188136191391538	1.2978816243052136	0.1742659190521886
Si	2.364198586560755	-1.6679242869912536	0.5266085293193499	14	0.6826256342834629	1.114045279919838	-0.36129094825561203
Si	4.897318821331308	-1.3083805687264132	1.64232589429814	14	-0.07802661870319383	-0.2243014283559943	-0.8191359001514049
Si	-4.1067203649662325	3.958798613591652	-1.101159920215979	14	-1.4198376342873935	0.10905651748046495	-0.16398972530862074
Si	2.3898187777690327	2.800046025472161	2.3353571693162745	14	-1.882690328015239	0.07250491291764383	0.8185874833866172
Si	-1.590653504944709	1.4210888005375881	-1.2709921518546514	14	0.4940746540725315	-2.6271240486424015	-0.34312917449514996
Si	-3.1686351366882475	-4.91136895519577	-2.7911135884631255	14	-1.254517619086128	-1.7060093697358352	2.1588985161270426
Si	1.175274871771811	-3.204446133735452	-0.7986242733116299	14	-0.10769743120823466	0.15318156987431428	-0.16934816590634136
Si	0.24257585842240212	-5.2720987108538235	-1.496841613255476	14	-0.13371624571653717	-0.5239753233931935	-0.6052173664097646
Si	2.1255137630950345	0.16473435161521338	2.713368193290976	14	-0.18644704472745416	0.7343022801131192	-0.1720195443339752
Si	1.447039932839711	-1.8987021945022216	3.462371119357739	14	-2.1272114428299416	0.18185402218354163	-0.2228875775404449
Si	4.406766026933953	2.172944359565972	4.971509076848614	14	-0.8464798623417118	0.544262887032354	0.0743939039963566
Si	-3.924106276708974	1.4099249882490912	-1.431667025441466	14	-1.6036960901785224	-0.6841711256914039	1.011482346035939
Si	1.862514677647648	5.25457567718718	1.088996348754757	14	-0.6456246005106798	-0.5018147095283052	-0.4141760135857379
Si	1.152937338778834	-0.05873510826639852	-0.9870486567015545	14	-0.07139933762998014	0.23294034223169188	0.2557463035319373
Si	-2.1907755449696986	-0.7317870532956053	-3.698973193783749	14	-0.6482895511750133	0.9675665816151495	0.7538095132876146
Si	-0.2161748840346328	0.5439849184294384	3.354067178451185	14	0.7584369886428171	-1.075365314372998	-0.6147440829525092
Si	-0.6560748650832493	-3.8386511430601407	2.062716204275442	14	0.555357206488793	-0.810664879453113	1.4238809545138584
Si	-1.7854083753064276	1.9961167862430185	4.159717509536644	14	-1.1828737693402018	0.058126520635779715	0.9662838571709277
Si	-3.9975583552355163	-2.0876467697312746	-4.699630068996905	14	-0.6160124092069383	0.44770014163408467	4.002177656242392
Si	-2.760347956834669	4.352128048676691	1.4128360808650142	14	1.4527611521329535	-0.3434521053233606	-1.69831893661274
Si	1.887967416625806	0.24890139118620466	5.055762319638662	14	-0.5440682543596187	1.1838793286309117	0.18774005359295662
Si	3.4980245725908072	-5.4873164419044596	2.725056160784995	14	2.3903435035045364	-1.2672872707691756	-2.4558740361307465
Si	-1.4470498412556942	-2.3815511954724835	-5.008876686046811	14	1.5325901156655712	-0.39218843510889556	-0.6705193277730136
Si	-4.455449047185192	4.195704876388353	-4.644304446670395	14	-0.01408785738068737	-2.2554352933615784	-0.6155154145485537
Si	-4.8424697938136	1.7745348796062443	1.213111149046022	14	0.14880143485091002	2.806031069907989	-2.7076757498805124
Si	3.0766414393319685	-3.002731591986993	2.47508664235578	14	1.2009972336313937	-0.03005493563987097	-0.2255149900671042
Si	-4.511105610605549	0.3938327826169948	-3.7298319645224502	14	0.6991560417182908	-0.4563645094524516	0.46267554457128707
Si	-2.732739146538523	1.689279895960276	1.6123529359483548	14	1.6937189720844632	0.04585334939005285	0.7148480117082187
H	4.5474576071654464	2.673873247181144	2.9270818267953325	1	0.2822528567194719	0.21189250274936364	-0.16723934532275592
H	1.505053708422518	-2.6177708050415345	-5.101446062371726	1	-0.320069702210338	0.05069705470267982	0.031195477959888657
H	-0.3642739960553159	3.0026602513919127	-0.27612575494219455	1	0.4085771746405834	-0.1447717414826419	0.31492260646993353
H	-5.992601069185935	-3.0620849854107557	4.734250074442905	1	-0.3315735987442765	-1.4331808995673658	0.21894041665295352
H	-2.3915448238333408	-4.250985910842938	-3.8798216023127656	1	0.07072287982024918	0.8906334540046147	-0.9089284110206604
H	4.835627041735464	-4.1533543247921045	-3.705732715167625	1	0.12424815037509189	0.9676928228863687	0.4944346088173522
H	2.4017296846226777	5.8513833520657235	-4.658603281776039	1	-3.179284342776122	1.2563986397383484	5.676682758269389
H	3.1911212959209756	6.219808974418083	0.942433041211501	1	0.5713435680378777	0.3009779596555784	-0.5083954535952243
