145
config_type=liquid dft_energy=-13843.980044414671 dft_virial="-67.02976214516441 13.625978068448209 0.5171334318852524 13.625978068448207 -80.2874046088264 23.85887781730969 0.5171334318852524 23.85887781730969 -84.57814850828943" pbc="T T T" Lattice="13.849990867899999 0.0 0.0 0.0 13.849990867899999 0.0 0.0 0.0 13.849990867899999" Properties=species:S:1:pos:R:3:Z:I:1:dft_force:R:3
Si	2.9095423715704394	-4.447790222314666	-3.659372567164025	14	-0.6871281539201061	0.585394144391423	0.5664602677033205
Si	-2.4222262878861174	0.1859901423659423	-1.2406364769766178	14	-0.03798936665784794	0.17135877026669716	-0.5272303427285011
Si	5.588931134894463	-6.721136033366292	-3.0563993647391303	14	-1.476676545378843	2.642744027683365	-0.04981619401999709
Si	1.202619637043319	2.5486642395182635	6.104330845061626	14	-0.8860484018871948	0.7345881870247195	-0.8046952871207932
Si	-3.605356217780128	-6.8369801269835815	-4.072690919639331	14	0.01214513020078348	-0.5316436450105352	0.7043203638643403
Si	0.2913858028724877	-5.994932537194258	-3.8680822345496697	14	0.07730439521876423	0.8811252494201752	1.0253699143121866
Si	-1.743349595508784	2.7598821402500855	-2.0021851498435335	14	-2.3990122422019478	-1.4536669525372419	-0.5347837359380321
Si	-2.3544402775813547	-1.2268709710530121	6.009544277559892	14	0.26568208293111756	1.2680506319387277	1.5789674563198703
Si	6.30673322660603	1.4700685006988155	3.5475574358902078	14	-0.5443906709667653	1.4282441202421496	-0.5881169449254597
Si	1.7048646258841502	5.376839299738878	-1.6010769493173682	14	-1.5390741861724528	0.5238112868737681	-0.5692913117713355
Si	3.6474685000130647	3.993545146824716	3.1326934244340445	14	1.16828891730113	-1.6845853775451691	-1.887729437332197
Si	2.7225481048665743	-6.341516093671674	3.6949656586954407	14	-1.2934657509178593	1.0018077909372856	-0.3062471828986899
Si	0.20397712550608404	1.5306262007696212	-1.5560755589893873	14	0.6475015073943878	-0.24860325873150194	0.06103469786339921
Si	-4.6942009498418225	-6.124892541504111	-6.091526528504253	14	-0.6881936199647756	3.0341212790637537	0.8618764123303544
Si	-1.4899640125805536	5.633835575286369	-4.262638004396232	14	-2.3437964698991074	1.6723705703902096	-0.18582663701370242
Si	-1.5886244225280393	-2.2155996591270046	-1.6916766645797359	14	-0.3613709096310686	-1.721164235824384	2.042066204826854
Si	5.611194995214613	4.0644058551021525	-3.315333254009041	14	0.3819446372923615	0.007604815315933987	-0.08768471872779808
Si	-2.326083806278416	-1.7644722165814184	3.8483335325711314	14	-6.421456379019874	-1.2683445092768204	-1.7016127796383818
Si	-1.6314555192870202	-1.0638662735314366	-3.4954980902159454	14	1.4210571095407398	2.4393832237178485	-1.7181732690054559
Si	2.3109069862853713	2.609982304087717	-5.705236433207654	14	-0.8132958915272205	-1.1905942843955426	2.153763761692175
Si	6.2656001387274545	-4.334840776788768	1.0262995583013446	14	-0.5512462661924082	0.7956144002405622	-0.4954162568285847
Si	-2.1374206156749693	-6.459403060941979	6.000969748213575	14	1.419293845512182	-2.0045450364478046	0.9332603233284137
Si	-6.0109154266558145	0.0349712269414475	4.3069191951990815	14	1.7478368824156	0.5602096535595085	0.332138727693645
Si	-3.4588773293621307	-1.8334327061117792	-4.442275155951068	14	-1.2925190699389808	-0.0376535803030366	0.7214428968543984
Si	1.2949949211349518	2.2464172738071686	2.231279233788554	14	1.4166317230637009	0.059912667501686584	-0.5800945821055337
Si	4.385828133169856	-4.024433396458306	4.482217144615006	14	-0.6614842065674812	-0.6540380284498003	0.18180439985086275
Si	5.191861591705379	-3.0173354654962186	-3.982434684150486	14	-0.6164708372855207	1.0357998601538994	-2.9391217657001345
Si	-5.642275759721268	-4.130707146385877	5.3330483986127515	14	0.6817314038531154	-0.31266466177777946	0.747636546524471
Si	-5.108238116843172	-6.72001556910508	2.9893861839247964	14	1.6374408190633378	-0.9037977703543049	1.7101465353064853
Si	-4.6374713872469036	2.09883869611426	1.7468647231910572	14	-0.6123742951789288	-0.7144980842741465	0.8123137292949241
Si	5.165790368895644	2.0134922823880865	-0.577299474353068	14	0.1274376065247356	-0.40644290011432843	-0.22105052278919907
Si	-4.572603570018007	-5.880682577525864	-1.8923685722519543	14	2.4191697079119088	3.4733992510006293	-4.059365723436317
Si	1.6802490371146317	-3.6005918209215704	3.613149607641495	14	1.1683902188507438	-0.2912740939562755	1.0836154771242892
Si	2.6003454804418324	1.6526335403231258	-1.8833134482225211	14	1.5430678840662386	0.0427009171570193	1.7190101637871638
Si	-4.0094213913565895	-3.193490729346865	-1.9776942109918256	14	1.1480944276745588	-1.7091561455371644	-1.699309326382061
Si	-1.7135721151427992	2.286639032286637	-4.3351440915887745	14	0.498407737868577	0.127427836324519	-0.5509418473225027
Si	6.856432439157547	2.1878484324249934	-6.035098895710255	14	-0.3611721631898212	-2.591472330941632	1.6732504026307642
Si	3.8794503070540425	-0.7801589055961127	-1.832965961419531	14	-0.5827849867125366	0.8377779563856705	1.2977119313540837
Si	2.2126967010410925	-2.5843182710094985	-4.928181310565038	14	0.3059489346815527	-0.10183248286244488	-0.7168012804199351
Si	-5.561812852775116	-0.24151060075809302	-5.823824210015874	14	-0.7232678674106395	1.105854509701442	1.6706312176411298
Si	-6.436848350813604	-2.326370501089382	4.058367259083748	14	0.8374246865146823	-0.7798010740795235	1.393159845485537
Si	-4.4899523645147275	-1.3343025802171387	-0.8918438469557713	14	0.3571041603522829	2.520132900065611	0.8085822841437931
Si	6.699408167692731	3.18572642446632	1.1128439962375913	14	0.9769302900805967	-1.1955768293954576	0.4046618954590619
Si	2.182988470629447	-5.898287300918052	-1.8599942185982377	14	-0.5842641436032179	0.4065295463636175	0.4974307178469208
Si	0.6042861815591712	-0.9021787101413984	-1.4296279123636342	14	-0.9174868492998373	2.3722215818765364	-1.994747068293785
Si	5.328382336689355	5.645428017642802	2.393001422155762	14	0.2453667513544995	0.624827443797066	-0.4133020948874195
Si	4.576539737422665	0.3096774858117233	2.3578432203375974	14	-0.16020891493534298	0.6286344794446093	0.01725520202457779
Si	-5.385736533872416	0.8808497242048323	-0.08266505549414793	14	0.09648484090706891	-0.5359918983279697	0.48066891093327946
Si	-5.2749629219118646	6.608380487712545	-0.6230044442171382	14	-2.998132746566045	-4.928368725493058	2.074437192139114
Si	3.4694060924199084	-4.2283080320319675	6.84283174812527	14	0.23408242721490166	-0.05526282353019878	0.12974080267052424
Si	-3.1621939049826713	1.7747973847734377	5.8094382245013865	14	-1.3734376679062772	-0.9553576880024264	-0.39127594983077496
Si	-3.6485321793117196	5.034950890165679	-0.3331199803547308	14	0.7797254835831111	-1.609403172657655	0.20474020196977574
Si	-0.47600341114342115	-6.915736715054808	-5.926735182160718	14	-0.16442887009730203	-0.38243957506649	-1.2361198178572765
Si	-6.790748857466531	4.405522820184009	3.240994813024675	14	1.1197436206408822	-0.6352751302654878	0.972712906023958
Si	2.3349533404302196	-2.6543202798531254	-1.7076055390769078	14	2.46923144248998	-1.1323461504781198	-0.6216341309894421
Si	0.8356544340047011	-1.0587251569212721	0.7034687361623767	14	-0.9974600518409152	-0.99709186955907	1.975689007218719
Si	4.454928507607981	1.9510399035665522	-6.606319609071401	14	0.7030924039634376	-0.1579843946123509	-0.17370490387133225
Si	-6.5832898442562575	5.858313457275119	-3.132602014494316	14	2.850303446636683	-2.19070257471621	0.12549153690791548
Si	-2.8894377248265957	3.529925012516284	1.637938700012284	14	0.12379615005980986	1.6574715292810156	-0.020125326893459087
Si	-0.835054729400121	-3.6219083418663556	3.517223185891333	14	-0.9863240804782899	1.99591923520924	1.468238177718117
Si	-0.7197798704075026	2.82865565490373	3.0343612592701277	14	-0.7841025332801312	0.7238723342714064	-0.6898797508337285
Si	4.198062421974647	-4.975148014597173	-0.4497992284213543	14	0.02597536282839201	0.4088373704989824	-0.1846007339970558
Si	-1.121836795308119	2.6764747252454186	5.242840638091945	14	0.5990824520053594	0.17441607160288525	0.9721380068743729
Si	-2.993556416175121	-4.758394272515452	4.940437167484043	14	-1.4209779194968792	1.900925378277325	-1.3985997901219063
Si	-0.5118707324940217	0.23505373501547805	-6.17871360601677	14	-0.3296750945758791	-0.017496628814139693	0.05330184150252184
Si	-3.287213617549944	4.109695325240186	-4.908324578657729	14	-0.08482487828019737	-0.5419766601816783	0.11514386643644753
Si	-2.7973948405157927	-0.7159351129425735	1.8784063964580242	14	1.8471831064334618	1.3260462833137117	-1.1544962228111955
Si	-5.4475268831304655	-4.550964344286	-3.566326943514386	14	-0.30275227943701255	0.5362253546910392	-0.16444995316092725
Si	4.70413000829502	-1.7305729789331463	1.150308221535261	14	-1.7822382715991814	0.6456793650539989	-2.2336624021789686
Si	0.1566447817150358	-3.9134852746128197	-1.7734470106638174	14	-0.7660505457168395	-2.4289617625236923	-0.4500992400083148
Si	0.7447264739587641	5.5985707285385224	2.102546338669597	14	2.0150089208797435	-0.1758965140462265	2.2438704616315523
Si	-5.872098353185939	2.703120722676171	5.990611340043474	14	1.4625413796602649	0.3172507423373276	-2.1257777945034273
Si	4.713928876834059	-5.22260718643303	-4.875218945486188	14	0.9741779218353784	-0.016364571141678493	-1.3934262119967045
Si	-2.014061517012758	-3.476501442741533	6.683058253473175	14	0.4603211834296275	-0.40115927868142415	0.14874641319705884
Si	1.6592510659598085	0.36143767168323915	6.411121992776479	14	0.017758624446262784	-0.4789557834584648	1.1975784348871925
Si	-2.1650790474381654	6.836144972534247	3.368637713862328	14	-1.555539287532149	-1.7671528253542765	0.7390534256342206
Si	-5.424753343146377	2.8710795619311944	-4.219542372811674	14	-0.12480762289275613	-0.2534451642704048	0.5698075897196212
Si	5.571269626539718	-2.5614090011149053	2.9227663428511104	14	-0.3390436881414347	-1.817653961831561	1.0685428864059852
Si	3.159644121663891	0.2256038862463099	-5.528085355013605	14	-0.07678066106505006	-0.043530612843831085	-0.4240292605041413
Si	-3.916159707849411	-3.799618959691467	-5.563667366552327	14	0.6050389317005463	-4.259474850503442	2.665992219098676
Si	-0.5882658971222714	5.87011780449183	0.41980984319509046	14	-2.2806442096940347	1.1137604014503653	-1.385692584304231
Si	-1.4245089557388584	2.0579992280420836	0.6738491456922858	14	-0.7216233884478728	1.5022227907293022	-2.4355386499326315
Si	1.686685127870945	-5.622503512758254	-5.8282201971173455	14	1.1002088766394609	-0.18660002549400295	-0.5426001532218143
Si	-0.1263894766641082	3.9575296305718286	-0.8864700504990262	14	5.653674965201511	-9.397646798562711	23.110619540056312
Si	-3.8561089174443706	-2.5382241164020405	0.9837925513286727	14	0.02286869627005709	-1.1290438228049215	-0.16645387264745065
Si	-3.8234880339532054	0.49845147634211345	3.5053994486874065	14	0.11212898833804189	1.899930360518428	0.9694424600567295
Si	-6.0756073490006886	3.9232564431701236	-0.8558186357092767	14	1.1381972148551809	0.5835789440353983	-0.7605596931951313
Si	2.3235229429669415	-1.9860194405025202	2.1077331602496256	14	1.7889797097486098	0.3388009757992127	0.3033369487868142
Si	-1.0191363430244667	-5.536421664516994	2.2137908503196564	14	0.5412127847910623	-0.13613257049641236	-1.9203212825914582
Si	-4.782166396841116	-5.778642769806611	0.9102186298402143	14	0.1961228853787674	1.736705024821487	1.0280297227658797
Si	-6.783228312425262	0.17844328234202358	-3.525260335591976	14	-0.07307055608807639	0.2959347365701079	-1.0964152107395824
Si	3.6004353160247633	6.241415284673927	-4.129963401876271	14	-0.3722839661624371	-0.19926297630626427	-1.3435593672019004
Si	-0.4327443496666223	-1.4135466879669154	4.217957933856386	14	4.51752075063372	1.661176234936817	0.8533375144516108
Si	0.914006602342585	-0.9256558296615757	-3.8275668562638026	14	-0.9404442487034396	-0.6209952113173853	-0.42084160412822175
Si	6.547698137723929	-6.344497996705534	-6.432550698647294	14	0.4922643388166152	-0.14446912238646048	-0.1308666896902171
Si	0.0615909093895513	4.330403239714693	-3.35364371374874	14	1.643777308124843	-1.1462974821663072	0.4244329240394046
Si	-4.405644700103647	4.016284061831634	3.6012538504850555	14	0.12240415363948169	0.04868927855817619	0.29142758894388837
Si	-0.14764782764724793	-4.5163864570852015	-6.1211710489579065	14	-1.5958642462628196	1.1554830130330684	0.3538550545592118
Si	2.144108776265078	5.14602643192715	4.251371036825195	14	-2.2775241733880343	0.7841644969183469	0.01761181433248233
Si	0.752040654136102	4.379486222351444	-5.628033814111806	14	25.44965200890772	-7.904855079258246	-31.989348893611627
Si	4.604385144062578	-0.7951044307416636	-3.988194895352446	14	0.9890656500811638	0.35365347990211216	-0.3612940335819962
Si	-0.10707704939790846	-5.651497083641115	0.053951254426817655	14	0.2570154011179624	-0.09726465715066981	-0.4660650327148383
Si	4.961907423327461	-6.765195624315257	4.29551649771754	14	1.258160875324778	1.790042604687959	1.0052484440767078
Si	6.272951713880135	0.4093143201153958	0.5836843201431701	14	-0.4730152446162626	-0.43984772887582035	0.7448913773741489
Si	-6.259500602749231	5.403367572247253	5.6169829063983086	14	-1.6098119784035585	-1.0986042498091564	-0.38249948182044946
Si	-6.3337988787600805	-3.618873808867198	-1.0459942453154984	14	-0.47848424274274964	-2.627643669027603	0.19054101572872595
Si	6.750160074229064	-6.214590622360978	2.202083453039021	14	-1.162404171444375	-0.46191372606492725	0.07415350564892276
Si	-0.42490248483721726	0.5358990816507415	1.775061919599015	14	0.8319929694153375	-1.4773506891937858	1.9194383650245193
Si	-1.4964942832747685	5.022499748375437	5.1134900333802795	14	0.027583074985080606	0.9366845213937869	-0.48748388269486387
Si	4.130482776533817	3.946024443157864	-1.3045708048210178	14	1.3509217272861442	-1.4454011060434977	-1.8051234229432873
Si	3.027846223565868	6.813590262405873	6.0680009340160375	14	0.030734478775986104	1.2769723673996414	0.010234541837381443
Si	-0.0018323537918231696	-6.912940401898579	4.504936669634708	14	0.5320925599994331	-0.6577874713381724	0.2242888299399256
Si	3.4478887466075387	5.701261485828566	1.0362438517444967	14	-1.0808075730041555	0.531501462886331	0.08792331730150782
Si	6.688337869992019	4.397963495168309	-5.906940775212315	14	-0.1423541311501067	2.508043562850275	0.09551296309605294
Si	-2.947571676495519	-4.090805322695457	2.540778054718081	14	-0.4181589128371792	-0.3243647336476453	-0.00817868602339104
Si	1.4822301776799183	1.2696771378284306	-3.7545067694365426	14	-0.2900142523494029	0.7675430723551855	-2.1559206619452467
Si	-4.959987814593171	5.55077856505066	-5.771961534211936	14	-0.6611695032762951	-2.5631096968234828	1.3317448811452879
Si	1.6157939496135987	-1.187398497079497	4.798858405835109	14	2.015955087637558	-1.3946983949091136	-1.2354657286638309
Si	4.0021182911719455	4.135996457898328	-5.326009833253684	14	1.3487892525336136	0.5783876252834874	0.2753036732601757
Si	-4.768058796143073	1.1593287205875242	-2.2944836671142155	14	-0.06473426130856028	0.7893856404919715	-0.7936151087436151
Si	-5.010712021147767	-2.277740413154011	-6.682012579162649	14	-2.2558782948082396	-1.221560933981938	-0.684399954064897
Si	-5.00830350773584	-1.3738096791678236	2.628160417101836	14	-0.4729813060260367	-0.22072219263981618	-0.9125945500966595
Si	6.4354051817651685	-1.536768671719535	6.7405828055439105	14	0.24473117411935894	-0.07775022488127792	0.17981127900668398
Si	-4.294524838371398	6.382115956901837	6.028883019808741	14	1.3109808916903039	-0.2207054804552352	-1.9090672974946379
Si	5.592392247612352	-4.136576772515693	-2.2615622388212175	14	0.3097117473175894	-2.059021873081634	2.6339732161047436
Si	3.401502357192768	2.887083226379053	0.7347627905283968	14	0.5295415093007821	-7.338123045722584	7.041273509879568
Si	2.658609622024914	4.471559576642156	6.52350912867314	14	0.29977596791840916	0.9021208954645044	-0.33947589094575165
Si	3.8305792292775704	6.193175766481031	-1.8430335197814076	14	14.622145664630208	28.247385350615993	0.8443507300260972
H	3.940019087117543	-8.027971311694213	4.057212169845366	1	-0.1622025500005858	-0.5960632030279094	-0.19475042935887238
H	-0.25115434939941184	-2.2204208409481203	0.8757404625736642	1	0.47580617944128334	0.3693194817283064	-0.07462838880155412
H	3.8230836142198625	4.527794694563091	5.4861489676646915	1	0.2943617343352413	-0.6521148416703296	-0.05859009092500242
H	0.9699522554543804	4.7695656751495	-0.12998631929250185	1	1.3200723201023477	0.3756071197887285	0.5708527440322614
H	-0.4063988970377029	4.297134176650911	-1.8120538602080887	1	-6.87380045108321	8.831288346630068	-20.717847113355834
H	0.18264536957134445	4.570526071387823	-4.942449571157148	1	-25.409440178811135	8.452913946185266	29.949418505974222
H	-5.743616142901692	-1.2587037900637934	-7.430846960412832	1	-1.1328045785567022	1.964055269866113	-2.420789504263602
H	-3.6336752941077233	-2.7021996982834557	-6.4371835205926065	1	2.6264504190485227	1.7355305439112436	-1.9831796654584384
H	2.9870275304799927	-6.406619360745325	-5.62055066404588	1	0.7131130298381827	-1.2635046606221738	0.36496788597395574
H	3.397159000056595	5.314864745602285	-1.8197073651616904	1	-13.327844561593835	-26.31572935022066	0.028651883466666167
H	3.161415535495895	3.8685489792419183	0.01139300248793454	1	-2.675909486539551	6.235954729718639	-4.2686884064181925
H	0.8638474754153984	-2.479615110046348	-1.3476387364238396	1	-0.840926274850192	-0.2967505482881909	0.8670011394544737
H	5.8104963638036935	4.357172502064169	0.8197754194746538	1	-1.0616260988737227	1.2512464017873037	-0.043947903237291114
H	0.06287618854209241	-4.7404973143159514	3.317820712368916	1	1.725682696314012	-2.2546521346810615	-0.3463631107668323
H	-4.950428550896146	-0.4596728869110802	-2.254462733502332	1	-0.3045371407502594	-0.4614866654712506	-0.7178829444281214
H	-5.833839138412452	-2.3223941687112077	-0.6651513514272447	1	-0.8169802854509927	2.245079138242554	0.9077973817903273
H	-7.365354508595793	-0.2520116638341348	4.80321561296215	1	-2.1623512534614693	0.08367148043357893	0.9500100460470504
