72
config_type=liquid dft_energy=-6930.642179040441 dft_virial="-15.784547033216482 -7.427951919820492 -7.4947951316973915 -7.427951919820493 -31.03673562898481 -4.355551431050132 -7.4947951316973915 -4.355551431050132 -6.6186716045965985" pbc="T T T" Lattice="10.914011036500002 0.0 0.0 0.0 10.914011036500002 0.0 0.0 0.0 10.914011036500002" Properties=species:S:1:pos:R:3:Z:I:1:dft_force:R:3
Si	-1.0496659254464242	1.0512811990798263	-5.074087441034399	14	0.8991929207259196	0.6572493389946653	-0.792033107640128
Si	4.472878229077759	0.3476439935456345	0.3877638981158085	14	2.073413635111163	3.015431143160001	1.251927230476079
Si	4.355563524446421	3.0953881541279844	3.677334136605201	14	1.735598163981163	0.08172206837984265	-1.1682169263521656
Si	-1.3015067301136616	3.32094802021933	1.5975711075007972	14	0.5566111345534293	0.960471616484201	1.4723928268049442
Si	2.251331282598184	-1.3390618420902582	1.9540663639970333	14	-0.11382308963348747	0.5675398748272507	0.46134036957853425
Si	5.14948142927454	-2.927956310817038	-5.120461073928487	14	-0.8102691863443423	-2.0210538465979435	-2.3600643674807484
Si	-4.932467233824774	1.8866941738687186	-1.3966987343740147	14	-0.03799836552646846	1.848084535958706	0.17264535136889925
Si	3.124212057275381	-3.8829322765107883	-0.8847552186849091	14	-1.504369920782158	0.37451799957511384	-0.626302229808703
Si	5.0717409286615505	-0.7820652888424806	-4.822475830598927	14	0.22001693845049955	2.9667452070387412	-0.25066837052464486
Si	-2.890805017248792	4.724970055998837	-1.3280714329765027	14	0.47520968300700905	0.33245651631121537	0.1027040875659751
Si	3.3937335598217486	2.975334032726485	-3.40040202056505	14	0.27270171467618587	-0.4575716434002612	1.584206340520204
Si	2.922019088813182	-1.6796226424732044	4.421440495062734	14	0.2662382130118656	0.2973979526078042	0.3906827958334168
Si	-0.7219618300644751	-2.7912801506069482	-2.6516026373618216	14	0.7326801697666376	-0.7401044934890972	3.1156847102453433
Si	3.3997690079249328	-1.3382323772514841	-0.26578891077188455	14	-2.4102284320505616	-2.1891066896439946	-0.6536963285527527
Si	2.2819778255886756	3.1301165372461273	2.6683229022697397	14	-0.5317999682140003	0.6866021057716039	-2.0303679327307123
Si	-2.5128309870327237	0.8464688679688671	-2.908092810730608	14	-0.9150047042237663	0.16165027657781803	0.6147805926480554
Si	1.6075574275991948	-1.2091960247669447	-4.101387121417372	14	0.782589180688692	0.5042660013405345	-0.13932948285148447
Si	0.057298557941625014	-2.552459761106255	-4.752353309689415	14	-3.9601372560421177	-1.3979379876125	-3.114391444269309
Si	-4.903195856224881	4.4575876996156225	1.8541595069689123	14	-0.5236991866818097	-1.4147116216106144	0.37781209971128754
Si	4.393413314721003	5.349829929871571	-1.5477268190971016	14	1.6103902199900597	-1.746272879049354	-0.5867223773998114
Si	-1.9178645893889628	-1.6153936875234018	5.528928850980535	14	-1.3346412312884348	1.202254247022414	-0.9371318937194927
Si	4.146811235351285	0.6450180522571501	-2.7346582613495864	14	-1.6793297811602543	2.2571569054839493	-1.8636482077931582
Si	1.9501809760680393	2.350823407206918	4.795081662897312	14	-0.3112865493261801	-0.47504333249279546	1.1954696143036074
Si	-4.5874753449610095	4.080464962260401	-2.872545876784727	14	-0.7904901873375071	-0.030769702918872134	0.21586434624792838
Si	1.8436165723076532	-5.270310445459631	-5.124739366254794	14	1.2902030182665913	-3.4551446603381097	2.100967399495594
Si	-4.822694110819658	0.8147745799188711	3.7027310402871367	14	-0.07040586253427493	0.675406227655019	0.5406530551628661
Si	3.7686298389255235	0.723882696006899	4.168224525004899	14	-0.17210824746752032	-0.8286343345356281	0.26192415539518915
Si	-4.779354572993716	-4.984636206579244	-4.423001198640954	14	-0.17879800640001361	-0.014532658601072987	-0.6470088836150475
Si	-4.011739434763561	-2.300575300394872	0.18851771263346453	14	0.4529873626144372	0.8910677136931876	1.9749251318281031
Si	-2.355952992394073	4.727665816724851	3.3543230659689467	14	-0.2924426613242828	-0.49895718307549275	-0.4498840384930184
Si	0.8028346518449401	-1.010877530222703	-1.4430614532570667	14	1.4167823898354615	-1.0590575646588947	-2.2129799167626336
Si	-2.546839045422458	-1.5399560432391137	-3.1786511443254426	14	-1.9137986455047746	0.2107961834408525	0.6839867774399493
Si	-4.413298642829505	-0.5158289036180995	-1.216846746503531	14	0.6731804217793669	-1.3727794649443192	0.059608505742313064
Si	-2.640743196380504	0.21858581303902203	0.007585237670367501	14	1.598860869513452	-0.3640790548647806	0.5095393383521583
Si	3.4413404759629613	-3.452254486999461	1.3864723060328144	14	0.06292137494732386	-0.3165840547278132	0.38531664191973575
Si	-4.443181205047443	-4.197888807002105	-0.8070474601050291	14	-1.0138603613465438	-2.196346665114999	-1.0647898439701649
Si	-0.40066425916095155	-0.7619616805132476	0.32390601954124704	14	-1.7310910163549436	1.335132312404583	1.6970248993051094
Si	-5.172990209047161	-2.6199192633228616	-2.9824936239664286	14	4.21743085075572	-0.8887388064941976	1.0467635674600748
Si	3.639680798529276	3.123120656171731	-0.5429174790106925	14	0.9009896091236391	-0.22149763800437283	-0.7373163868799286
Si	-3.27030700900997	0.5415641416421666	-5.224504341139441	14	-1.410381623140953	-0.8950369860864323	-0.3465333179390261
Si	3.670840300038483	-2.2336396707080173	-2.577856664788191	14	-2.9748038224436812	-0.11713852994381843	0.10185536569979421
Si	0.8428017602606032	-4.723332954343362	-1.4021775679143378	14	0.689954827109077	1.3394867363747858	1.521922856802809
Si	-0.11229425955454851	0.7130669110697276	-2.7167811112717994	14	0.6659368467609137	0.9902236759173585	-0.5565242311936082
Si	-0.24945063625024405	2.8789633152741896	-1.5621223996542453	14	0.842074016265106	-1.8191434031435227	0.5125408467028991
Si	-2.2192222621288007	2.482468208329181	-0.28270562787845954	14	-0.373878822792525	0.8238055416338579	-1.0104225364229737
Si	0.6547533501017081	0.7017927376690231	1.9070378904407548	14	0.6851849125191383	0.11732159264261297	-0.3148835256690672
Si	-0.6091873540243206	4.8795124522756765	-2.466533752215891	14	-1.2714884568622975	0.14352964050247838	-1.7790141055277158
Si	-0.40334910587593054	-5.418664597478776	-4.777597417216839	14	-0.3148120489411671	0.2604925639529307	0.2652637640955295
Si	0.15134459104314554	5.141928933637282	1.0269866105125771	14	0.32678260109071255	-1.1798943724952142	-1.4987194026200685
Si	1.536168881409448	-3.5785841647469487	4.684828323406589	14	-0.6242947107747313	2.724476380484488	-3.758006211751229
Si	1.0626099425357132	-3.9098134856936877	1.8265252310244944	14	1.3518614662806585	0.8556047151229172	2.136914537197648
Si	-4.354046476912347	1.9528003387167994	1.0581788540548942	14	-0.7525067342218955	0.4750032232498011	0.21292762975125526
Si	-0.40936272595704204	2.2471293883491312	3.641710804582065	14	0.8139983175006851	-0.7231377694814402	-0.3576698035227155
Si	3.211185811225249	4.8755724942915	1.1127161672042847	14	0.04313954772463656	-0.10957073854449456	0.284928091805086
Si	-1.9727293228694482	-3.6536725606780687	-0.47961621499899254	14	-0.3915788260374884	-0.4568517339106197	-1.1728793687397223
Si	2.054988224051549	1.0590519749378142	-3.9920614728647514	14	-1.4778844506582485	2.922250429699855	-0.34646389809538203
Si	-5.132782992388695	-4.1298945182447095	1.8504705712385754	14	0.34516086191913103	0.49744845847362984	-0.017964055761342614
Si	-3.738387114343382	-0.3602824183259015	2.0322325110404464	14	-0.029964946953665788	-1.0905469199568765	-0.42971551703018085
Si	-1.4284803345123027	3.639047785889159	-5.693490309388883	14	-0.038823690334236	-0.3878777199291353	0.49527536025704066
Si	-3.697568713066872	-4.404731144165853	4.198478163598076	14	-2.132564998327554	-0.9509495279310327	1.1291253268435704
Si	-0.7899670328329066	-2.776720859884257	1.2542927183697627	14	-0.40648840867849506	-0.055763160625499596	1.0285585991302344
Si	3.679626078922866	4.155695240334996	-5.328198359997228	14	-0.1368316540329606	1.0695790418500049	0.17703499948198806
Si	-2.2971701289514836	-2.8928241092905447	3.521689425213675	14	0.8327061940311464	1.853902947298201	-0.07480065285800404
Si	1.5237487368499112	2.4867683286775617	0.27167156272055804	14	-0.6738627931313341	0.06816745824255402	0.3315897967077934
H	-0.7480048431997715	4.464192859094912	-0.9079474921374716	1	0.062493543022051234	-0.06906837354673388	1.218557882968005
H	2.6989105096006343	-0.2635635439215422	-3.643119803406877	1	2.315297824309522	0.05233947678119042	1.085350201883793
H	1.3146843070391316	-2.693912983947021	-4.172948108981496	1	3.4426511453664466	-2.3484314014597385	1.804162343774616
H	-3.5702884249581053	3.7820704435169734	3.3947889446889783	1	-0.7037858310682815	-0.3226251237880331	-0.09738369932699266
H	4.601224816064792	-0.7611147532568152	-2.33294298292582	1	0.04851907138598238	-1.2260804229136941	0.4215329743488096
H	5.440817857080664	0.38889568106029365	-1.9568254259870606	1	0.7974833366977778	0.12065348802699287	-0.32262435245643706
H	-1.287011832056086	-1.8022306424572452	3.0334969803422003	1	0.22047536652908198	-0.08958168023300332	-0.6289934057473019
H	-2.5435004494463924	-3.7224177333947748	2.21813959223398	1	0.28781749996386846	0.1903898347359012	-0.5966105913505689
