145
config_type=liquid dft_energy=-13865.549477868259 dft_virial="-5.7738435531716625 3.558951307172563 21.70984690461673 3.5589513071725634 -3.6931132824258133 -10.779304884438353 21.709846904616732 -10.779304884438353 -23.102692138609562" pbc="T T T" Lattice="13.849990867899999 0.0 0.0 0.0 13.849990867899999 0.0 0.0 0.0 13.849990867899999" Properties=species:S:1:pos:R:3:Z:I:1:dft_force:R:3
Si	2.313883349322883	-1.144642190271203	-4.858385666585343	14	3.3091382740807327	2.49670601683055	5.122339081497797
Si	-2.2295285949428516	0.20333587092890024	-2.618849068241347	14	-0.03328450103250897	0.42827672649302595	-0.5604757629601437
Si	0.604162916640447	-4.9287366951988405	-1.3584569642907565	14	1.0486055073114289	-0.36788557629125984	-2.0707841657002475
Si	4.633384254941786	-0.21428982870632238	4.814770660343238	14	1.261129216416889	1.1053264046686835	1.0445565306532598
Si	6.0989667435984884	5.385309954153684	-5.689724443435606	14	-0.4251482055394698	1.6610595067552822	-3.7573104706515963
Si	2.477716276298359	6.858234322969461	-1.8013395072726814	14	-0.4264072758147463	-0.37647435361321446	0.024995514590883578
Si	3.173316832648682	-0.5474388940418757	0.6727716164027632	14	-1.1260004054374622	-0.12530178933528854	0.2282041091214471
Si	-4.963227327457172	1.3660287542982372	-4.712862427537231	14	-0.953785457099156	0.4644737756321987	1.0179813289536772
Si	3.9137581194329174	1.8405612964114875	5.766036508118648	14	-0.529642810850396	0.24820319474368688	0.35908442566986093
Si	-0.994396104337137	6.651031534590244	0.056897147484419985	14	0.11073982013356591	-0.08704425639254919	-0.44840102494435696
Si	1.514679321284321	3.9858597868921177	4.8031422080105495	14	1.0509408422737192	-0.32540423152858117	-0.5783585717933696
Si	2.36456877590305	3.9783766368261917	-0.14904667672490585	14	-1.1830380629701593	0.35088285680912057	0.226170879034274
Si	0.32074362851517535	0.298691673055305	-2.6743058166755054	14	0.44466340914045777	-0.19104546659253896	1.3248502051187787
Si	-6.747416391038133	-6.351705531953188	6.789747503126783	14	-0.5590205173489399	1.411734538760415	0.9847665048753443
Si	-3.2210923761475025	3.2798412674109607	-1.275940103698895	14	0.6200297612696697	-1.2863430178494528	0.00926420668955756
Si	-5.9722684121380265	6.117119926629045	-2.5869442292780525	14	0.015205259752823726	-0.016183051106076037	0.7536845575690553
Si	2.3582711850554157	4.530365252868173	-4.680079499152911	14	-0.5972857636076399	-0.0940227504524951	-0.39445383600647793
Si	-1.6498372271668968	-6.277491740886633	-2.781374556078893	14	0.23003499321992454	-0.30666884417119417	-0.11740926733403002
Si	-2.409592326216419	0.0660076714773246	-5.148124705543637	14	0.24193355442050582	-1.8333456747109569	0.9887419479213573
Si	-3.2191547624250836	1.9205034437010062	-5.999568129137744	14	-0.7775806675250436	2.1754597768257122	0.2573139064456316
Si	2.8129082152869276	-3.3814808103941316	-2.0400648748672396	14	-0.3224279200099777	0.4319284673792323	-0.34430545517911776
Si	-0.22581717610567553	2.2036886669806104	6.1605161030154365	14	0.15798722282820304	-0.695963500242263	-0.6448823224047531
Si	-5.222219386688728	-6.024070147982146	2.0016422302015116	14	-1.4165239937507865	3.077965052535579	4.020312433396993
Si	-4.800577189701815	-2.925367371136102	-1.9653801841111758	14	-1.2596426033207793	0.7142047211571175	-0.28993634785820244
Si	1.9161157665940554	2.050772302807213	1.4400901954652459	14	-0.12322150802075675	-0.0832176803445728	-0.7318268199108805
Si	3.1656550177005593	-4.399498074156472	2.6374025160079855	14	-0.49998279698769976	0.07255093570287445	-0.5580620092855888
Si	5.8226248008067145	-2.1843042197618976	-6.292030076300668	14	0.8033500848172918	3.081776459062166	0.7002464474845657
Si	6.61016436653633	-6.370578914508876	-4.043823383673367	14	-0.17376866728327192	-0.47995208677002216	-0.7876645425906644
Si	-3.091707146458668	5.805860771860208	-4.341742227238242	14	-0.38134994063181127	0.17441632871341725	0.2170000034678378
Si	-5.237530551593192	0.5455552952838414	-2.1937014385657676	14	1.6341438907113122	0.9619849690756401	1.6302952031575824
Si	4.893025878745048	0.6138454452561959	-0.26567329482623137	14	1.5388301882775708	0.46861556919242525	-0.11856240807011643
Si	5.8369359963705145	-5.005577829533037	-0.3513784233158833	14	0.7238754195977904	0.11847524759976341	0.5303478079291806
Si	-0.07599074489490693	-0.35981168275534764	-4.90690910959103	14	0.011040069134183837	0.18668821440648403	-0.903140852945007
Si	-0.7002209133038542	5.846067295349722	-4.922842139085462	14	-0.23775705093845725	1.0015501661842068	0.27347587448808247
Si	-4.3281359962096175	-4.76773193635859	-0.7682243684652432	14	0.5231394570536134	-0.388064382175378	1.3778846516680052
Si	-2.4635103406651537	5.357309427616051	-1.8462384076682394	14	0.47128231963048284	1.202062442565531	-0.5264749519854416
Si	-6.65900635933198	2.3522381290333585	-2.671937468237094	14	-0.8060667146985603	0.8981089427229453	-0.13423329499641898
Si	-6.698229533469872	1.8782914415338208	0.06692592587186638	14	-3.6797587351010344	1.61681155552713	-0.5913022873065912
Si	2.719996936548707	0.7048495802519064	-6.192569136881017	14	1.4947542439953363	0.9630447786886052	-1.0210088054681516
Si	4.662753160577168	1.789542085051404	-2.3042340606852174	14	0.2815344898930226	1.104119784941938	0.004808481169740938
Si	-5.731408760950725	1.9586144635722065	4.564639825268965	14	-0.38794045489894685	-0.7547219985657351	0.2758037532449445
Si	-3.1361185271756757	-1.5591336369730198	-1.2624432875981264	14	0.9291010462520103	0.46720891747177223	0.7362100402606689
Si	-4.787066523610179	4.599453162314519	-0.21509451317574735	14	-1.5631374179742508	-0.6912887165491698	0.20732210593226838
Si	-1.3466055271050943	6.628348019546796	3.1986360009542896	14	0.6656941344186916	-0.4558657150203429	-1.0793965504044583
Si	-1.7157119387318895	-4.674139238069669	0.671261967398162	14	-2.716941499233262	-1.127696306506632	-0.6671013003604087
Si	4.442862395563867	-6.373576052532689	5.663901135462407	14	0.07798393835487938	1.6776775888815274	-0.4965336592007211
Si	4.614118917644538	-0.03249346357518019	2.5666041326894544	14	0.1592900018939221	-0.5242422041254249	-1.4753699096551438
Si	6.3996084953679935	-1.7266423515248364	0.008161799618453468	14	-0.0044341282351273775	0.77515688653974	-0.8507568960417781
Si	-4.666840292882285	6.2961892285582985	-6.644271354047621	14	0.4966318754239507	-0.10006176262845892	0.5299240897724202
Si	2.2104737775067944	-6.51462989952773	4.434841865852266	14	-0.5588009449545993	0.8964603499916662	-2.408339440971849
Si	-6.024755722530108	4.403147546750164	5.474992800020598	14	0.2039205335937125	-4.989951325900181	-1.7636962313618694
Si	-4.105169148224556	6.7705334107957444	-0.2275788949440724	14	1.244498021653511	0.46430742511798506	-2.669396876763616
Si	-2.6179820588130163	-6.570280547834039	6.722498872467694	14	0.7036115101275754	1.1164294658832112	1.0082216702689268
Si	-4.379221687525867	3.870713732814571	2.5124880633713085	14	0.6278482354377081	1.2650964319258773	-2.0651089649270853
Si	-0.28836788986237233	-3.6566399639657883	-4.058040399299266	14	-4.333951544091108	-0.7788860176960828	3.6832117295459934
Si	0.3872582096582651	-1.3574569949500939	2.4239173717710885	14	-0.4667173221345599	1.0251416001597575	-0.8056658793791491
Si	5.9816891759263715	3.0863582799854847	3.640436859649432	14	0.04442715726896672	-0.22059312315274474	0.5289815225620539
Si	6.283926446643859	4.64880760477228	-3.7441871412408703	14	-0.3523026211669063	-1.500637961409963	3.3026536893527876
Si	1.5872324984458153	-1.4176767552437233	-6.853271871241493	14	-1.4601219695540055	1.2239903713989457	-6.27272205001782
Si	0.8724940247142283	-3.756225553303249	3.0807448786867253	14	2.986750206203218	1.318081770363489	-0.968806625711057
Si	0.8317847465562098	-2.337648548653113	-0.8803192695545919	14	2.196426626490456	0.9815441385776026	-0.31793105680503875
Si	4.8208300313479455	-2.487634254758862	1.5509455223719173	14	-1.0790036855115397	0.6624915656319152	0.5209257353729659
Si	-1.9597640128142422	0.1473223528618523	3.304057976443484	14	-0.6274921373508675	-0.7872544512921007	0.07476465738352195
Si	-2.6118755978393593	-4.016566601645339	4.904532451158098	14	0.444737971194742	0.10091177004729986	-1.5205822824888837
Si	-2.612856177192806	1.06117245030763	5.890459286079515	14	0.4209796724839137	-0.6107701825696884	-1.902187790989518
Si	-1.6636622880512346	3.6649208735057055	-6.511171556808016	14	-0.7510466035105834	0.6076064374732463	0.0022646295659864276
Si	-4.96788369438696	0.7503232552684824	0.41234746811546596	14	3.5493527874841875	-4.032870740222723	-1.1487402893309802
Si	4.893178228644595	-6.389183607241725	-2.00349812897781	14	-0.5608128348676151	-0.7285908267549421	-0.3461409672671714
Si	-5.381678486548122	1.9510814535391559	2.1656579770564437	14	-1.8108045372586867	-0.12234990331722656	1.7286366392163302
Si	1.336459023795271	-5.759768002251837	-5.091173543094832	14	-0.3642369207314377	-1.7797687249391791	-0.14124495631499479
Si	0.46382234417510304	5.000285748022412	-1.710954466868766	14	0.5143586181642438	0.1418496802862936	0.39978399444567697
Si	-4.86767208546227	-0.6283533106903211	5.31263628207164	14	13.970781842823895	2.185754996748649	-14.646412527973363
Si	4.46624256514797	-5.158294753837936	-4.166971962474386	14	-1.0588462198015787	-0.017503313687972078	-0.4886501360680831
Si	-2.410290365756161	-3.1968548921286777	-4.8866022529805155	14	-0.32547159448796903	1.047998983566406	0.7219275502072463
Si	0.07920255777717293	-2.162419849191529	4.57996345516521	14	-0.11138336779519896	0.914008400912209	1.6159396937130677
Si	-0.45692089372562844	-5.1065567279518085	3.9616223028732933	14	-2.405565989663005	-2.6549212967006506	2.0701653006496885
Si	4.629284657644888	4.324514223597662	-0.4616852905841861	14	-1.5996800236684512	0.26931891140646697	0.763487925044248
Si	-3.3866274670006433	-1.9342911096100008	3.8628483230006907	14	0.15932214071042392	0.30663027759139194	-1.0521814005906909
Si	4.834608002263332	-0.00411483228685309	-3.7595481661124586	14	-0.17141379192054831	-1.1019330598671524	-0.34838734198538485
Si	-3.148893758752227	-4.255319669221634	-6.758705518594558	14	0.5759247634973175	-0.2171450138078941	-2.5506272376046955
Si	-0.7089838025259745	3.561213526885957	2.880994770393524	14	0.20132757387834316	0.6546543223950397	-0.7484760124114994
Si	-2.926965660082258	2.223139594155489	2.5945534142608766	14	1.5018666926424618	-1.1568958354064898	0.06094110962974582
Si	1.2495891110736284	5.111869584448735	2.517138890304749	14	0.19315660117091257	-0.1974737441139732	0.0519468689988038
Si	-1.4302650119435574	2.4837576423149366	0.6971877653037841	14	-0.08608600543973	-0.031108317489535638	-0.5151736585507307
Si	-4.004151469831354	-1.7652228860864587	1.2275482356064522	14	-0.24132600223335482	0.4761450511224789	-0.053968272001504225
Si	4.784565215259436	-4.176539536165931	4.261841629921327	14	0.49846147396976814	-0.5608532012211415	1.293475521118076
Si	-4.91670797813007	4.191793916107836	-3.5131125086017403	14	0.6903438353440152	-0.4953134126157789	0.10552356166004946
Si	1.5799640232383414	-0.13092811867151904	4.893138063671077	14	-3.402958421434	0.6721720342728047	1.2234800069928964
Si	-0.113596240099429	1.496767128094866	3.7529472604648175	14	1.2713521882803296	-0.16904528969962793	1.1600354121129226
Si	6.90089367984168	-3.8214977902654885	3.1144696064500614	14	-0.42487129749648983	0.16608774724986156	1.2647860995137357
Si	6.839762590148943	-0.5229908901618586	5.610514960662999	14	-3.191303231705686	0.3265506873908352	-0.29305458439047805
Si	3.9091945474419445	4.512482144659541	-2.7186562574326945	14	0.4255950636441115	-0.2761752779637059	-0.37920975256332
Si	1.3069377682603418	-3.520469623750769	-5.268069781456911	14	3.347553158669065	-2.276762869102739	-2.121071643325428
Si	3.959584969216625	-2.8583569603199415	-5.159739307885458	14	-0.03460167828802083	-0.5170973595512655	0.27873789863629755
Si	-3.061856261141083	6.544063900120191	4.688886708345809	14	-0.7159029362210755	-0.003571522400217697	-0.9584288733073432
Si	-1.196493786082447	-3.006752687474056	-1.3665287389685685	14	-1.5945259859436822	-0.5814868356363939	-1.1312611440330174
Si	-2.802128767394441	5.271986558874354	1.038893354997526	14	1.4041767746718394	-0.30380180462869705	1.007976129710853
Si	0.8684899923543183	1.8654705049874056	-5.562657702218058	14	-0.3324117790786447	-0.6763333682334645	-0.45496608526882304
Si	-0.09290019874552603	4.9033275019525915	6.120143379635508	14	0.16424297918265535	1.0674776774718477	0.5595357668550976
Si	2.549305494095447	6.283495711927867	6.3230235858648545	14	-0.8323380117493013	-0.679780963357251	2.0931736079386294
Si	2.6853913493661725	-0.7975669591179761	-2.306067799476127	14	0.01822630850399772	-0.05175712142617687	0.01781364610011395
Si	3.470979451382502	-6.586191417343082	1.7651841061120286	14	-0.11338548750799826	-0.3185812893405042	-0.10790311963384652
Si	5.990996369789601	5.792528770650767	5.4409550624636465	14	-1.5986587806352883	-0.4790336879496653	-0.4904951612458213
Si	5.480703151255432	-1.8995151675397905	-2.2364078854069374	14	-0.2586616798544532	-0.3962867769892116	-0.05621001873014134
Si	-5.375747920458487	-3.515647056930566	6.910707783370674	14	-0.2762683519762953	-0.05967818269648907	1.049874347786922
Si	-6.104244975118246	-2.8005083184628967	-4.283425455689863	14	-1.107522385722622	-0.6771108704822771	-0.3837549525482778
Si	-5.196828198430608	-3.2954654421090392	4.678888399938272	14	0.012119676258114014	-0.22496965862870077	-1.177369289960297
Si	0.5465524946263302	0.6309848089552221	0.05870734129085452	14	-0.8744570877723711	-0.5566360742750347	-0.49128011970006263
Si	-1.64620298956316	-0.5443337260892925	0.7879758404419555	14	0.38899255119595144	0.10725417265104115	0.525473506463244
Si	6.7175890507050235	4.264649023070251	-1.0699533445178786	14	2.52751120100284	-0.41437476002698526	-0.41891661757502685
Si	6.0762943085477366	-4.114371082157189	6.750043734305774	14	0.378428136545995	-3.574101990185401	-1.6898000933554937
Si	0.6517168602853816	-6.4851543489626655	1.7514296801811169	14	0.38271236934095776	-0.5627090250412243	0.32420326823354
Si	5.912953056248071	-6.3170694747907445	2.5421478188149167	14	0.15405857389901678	0.23173140851015825	-0.12358480520249367
Si	-3.8606073944782646	3.7111341380346277	6.269350716254481	14	0.4875239919378582	-0.2413414288652757	0.13082529489456268
Si	-0.01796066815749272	-3.29450286774372	0.9929889452649583	14	0.7192759692905777	1.4313682703166617	0.719178781509476
Si	-0.8170996012389755	2.3850487573994137	-2.3726848705516392	14	-0.159271489935617	0.5117708006595146	0.0037576704253964176
Si	-4.477792072532711	-4.390584220033892	-3.7300213705811824	14	0.5972819069496595	-0.8375619835387781	-0.17042134526697117
Si	3.5099671756756408	-2.110269093577538	4.558195424518131	14	-0.6948586962861953	-1.2018318144183138	0.31504010598306426
Si	3.9171624471882476	4.343949915782586	6.185019506858925	14	0.4568617612213683	-0.5067306629004285	-0.45507689990812145
Si	-6.084611228063911	-0.5249285038842778	-3.913518514590903	14	-1.1321396907209118	-1.084725680401529	-1.2903572845858002
Si	-0.2897196489710793	3.560050127653053	-4.573575839376934	14	0.017668892870589613	0.13437522001009114	1.780424871016881
Si	-6.097840739340929	-3.360492534232916	1.0911701455284146	14	1.468880954048154	-0.5338545384753306	-2.0539537102745586
Si	-4.267049226487658	-1.3935763861344903	-6.091354788617491	14	0.7816522699100301	-0.009478636873257909	0.8783358572583464
Si	-0.20716954840113497	-6.609527266956407	6.787604909539518	14	0.45340876677640934	-0.05818077095803484	0.34757564403581415
Si	6.123779002238332	-4.3239629939611195	-2.829292754483653	14	0.8829173098283183	1.8212059438313455	0.7391549842943665
Si	4.018007000695601	4.450989570205151	3.0853126056749582	14	-0.3025944135703555	0.12090982722741163	0.26983724623900884
Si	-5.025149251628466	5.523068888321252	3.706440376129496	14	-1.8893610607683629	4.1553324866213766	-0.3621090739684832
Si	3.680015978552629	-4.130570031476284	0.014410915498049948	14	-0.02024102663286575	-0.13677868926336556	0.8204525631858528
H	-3.4990686178616897	-4.411003261570436	-5.332782478788087	1	-0.7028172956941817	-0.9226650554146156	2.4218140897336804
H	1.591395805700706	-2.1549422391219495	-5.647986110956103	1	-0.7865072880860658	-0.6227656744408393	0.6426050944226979
H	-0.2539852875328105	-4.859237441023718	-0.08141440131877657	1	0.17984007538626964	-0.687334356566782	0.8173528386118823
H	8.275377853564772	-0.723853152721752	6.128277479272226	1	-10.786470732036351	-1.6570740363985208	15.123141220003516
H	-4.939308393228308	7.003434857230352	0.9678719868260217	1	-0.8877895544099991	-2.5975895047193283	-1.794593718215153
H	-4.513707868851349	-0.9518253874064728	-3.8815056456988386	1	0.18440404444006447	-0.21988684052130003	0.008006679077473133
H	2.7758484097226006	-0.22969378854960074	4.177353915628964	1	1.9660051961409133	0.15564571721314419	-2.012357339963075
H	2.02273299629515	-2.470577991005043	-3.901884522261867	1	-0.24592879497748393	-0.43043311252503413	0.6557753243146244
H	-4.151728662525175	4.556246730803018	4.365345381675318	1	1.9401460472729917	-1.8936388658000254	1.200640364212957
H	6.5432342856672046	-2.2803913014061274	3.1763582906432726	1	0.005410119814655588	-0.013421941102769019	0.12549102268685147
H	2.8027603269780172	2.969932486751744	2.3343854908046353	1	0.7961080524620306	0.2211898766975511	0.6569739736148774
H	1.6406463732269585	0.8667116535268801	2.416243091831185	1	-0.051825255717160804	0.09861140211736337	0.3306626561293481
H	-1.3764536424245055	-2.252145630030132	5.327656597167878	1	0.6681564819837975	-0.08242166613745495	-0.3301219526805209
H	1.2557620520034514	4.543076774486731	-6.074401014796095	1	-0.07867993656504346	0.2342503203923073	-0.38588151375857227
H	-3.232086498898442	5.467231265138227	-6.357418653186197	1	0.01588531711000289	-0.6331205440072036	0.13397309913802
H	-6.1497269601293425	5.584353712912623	-6.294534154649583	1	-0.3442684312625076	-0.8424069744040652	1.2175914044781615
H	-6.17743663685875	5.6754824978261444	5.948816222601412	1	0.2642792878684448	3.8573251820526964	1.3922342475702838
