72
config_type=liquid dft_energy=-6928.20463538504 dft_virial="-75.14885409065461 9.406323484074221 8.022563989910546 9.406323484074221 -95.32275307908637 0.24758221268380654 8.022563989910548 0.24758221268380654 -109.67711962101588" pbc="T T T" Lattice="9.90122247339605 0.37328966375861156 0.0562897112016954 0.3734382899983626 9.984720694888162 -0.14749668032889238 0.056834674080782396 -0.1466049228903864 9.935049805563379" Properties=species:S:1:pos:R:3:Z:I:1:dft_force:R:3
Si	-5.125203471375124	-5.43672406989322	1.6021433041190596	14	0.5530000171312813	0.2637169871349284	-1.0819239469341637
Si	4.912560937638573	3.684469254467248	3.3500463432451215	14	0.09126112622812405	-1.1329313340489855	1.8373301166255902
Si	4.11140110067679	4.220763260410371	-0.9245978924413809	14	0.34899977927264414	0.18788454971194896	-0.26468706517222024
Si	3.3223572747795105	-1.1144718770896769	-0.20554711705083797	14	1.0239246960117314	-2.6663326334430635	-1.154885745267198
Si	-4.0431945375718605	-1.4530107443113078	-0.9763981003609977	14	0.32180596963303393	-1.3589821424648085	0.7359644997025948
Si	-3.7781226115007467	-0.793369840315633	4.424271225451825	14	-0.012162613716960488	-0.641546313251861	-0.10814351798128036
Si	0.24444260399367465	1.617108975620387	-3.5766855053998228	14	0.6835013527555052	0.7344017818890088	2.564321458760868
Si	-1.3724682033070443	-1.0289295493801895	0.8853110230671999	14	-0.4215337456804056	0.0970908504310278	0.557716966951625
Si	-3.520129257808174	2.3072727550529257	-4.72064978266409	14	-0.6770324517700128	-0.35451942817393806	-0.8427849268861268
Si	1.8452829514109172	4.458657392280617	-4.905300050405938	14	0.7676451452363954	-0.09079241372826106	-1.861602636400448
Si	0.2641385532854772	4.025606108359727	1.4783079211585264	14	0.25219509286374875	0.3228943185150526	-0.1765945691406467
Si	-6.037410889629262	-2.11249212280965	5.138954371076887	14	0.3794833181693838	0.08028739161120003	0.08069748290976364
Si	2.6049334612934416	1.5722288054235765	0.26893323577984446	14	0.12025265270758177	-1.0852550709869475	2.2926476719916775
Si	-1.9536760680613214	-0.05025152250141143	-1.5137186182000013	14	-0.5930930621620744	-1.0300570393108166	-0.23299742076979912
Si	0.35976566678286886	1.6500029350020782	1.4529919183209394	14	-1.97094583212411	0.7391567840680906	-1.5428349419242333
Si	-5.0042871077633	-3.5047523870435358	0.3123122809551696	14	1.6531471872430588	0.6515188594571193	-0.281542717430047
Si	-2.4435739161621743	3.675911355582386	3.458731758167036	14	-0.7701532584761999	-0.07648189862684887	0.5149276037715925
Si	-3.9567317180175148	-2.8846757880695773	2.399959050686444	14	0.35608934508242046	-0.31456136617245267	0.672608350845634
Si	4.186284945312934	-2.9641224582660763	-1.8452423269053853	14	3.319767737695289	0.657053677879802	1.2582796603905688
Si	5.469052258722258	1.2472823032479736	2.939121543056762	14	-0.22409214038293424	0.7871132976100247	0.372211718102941
Si	-3.9309440745791187	-2.131519254022573	-3.3536252630983254	14	-0.05919918577534549	-3.382737706533164	-1.071458262728501
Si	1.9511087974800223	3.108870544001174	-0.8687352339685701	14	-3.64324749689174	5.348746759332057	0.34911033680141046
Si	-1.3613390704744892	-2.623400767003303	-1.0796071337688873	14	-0.657504649752956	0.13034552664182306	0.6581098879453189
Si	2.8680157774350885	2.4436403025492632	-2.601379312480196	14	1.8777540629110865	-0.8783080893208889	-3.061744977512893
Si	1.1483081268313895	2.1811108760194897	3.990982139547334	14	0.8585985101576977	2.0579988302747476	1.1380195514775586
Si	1.2959197447856894	-4.491556305870301	2.90418644998249	14	-1.028449070043596	1.7319567075162376	0.362973736687649
Si	0.9978815278962055	6.616189210784411	-4.420811206590423	14	0.7117248900758347	-0.42310289125729195	0.19145992877014686
Si	2.6419513034074242	-3.7832660702377297	0.7614290705515447	14	-1.0005590050832898	-0.30849201495371115	0.5441880678675376
Si	2.2922387154813126	-2.0529524511653996	-2.4853577063641716	14	-2.568831691713472	3.4454140551434778	0.6982206736028209
Si	0.4005853681096819	4.962980903211703	-1.0273263676740754	14	-0.28865156652972446	-0.14316171533116517	0.32175171931077884
Si	2.964539602578978	-4.005729825897027	6.517720363582979	14	0.33322964768098384	-3.3514005606701347	-3.073707045014882
Si	-0.0367849943383725	-1.3382574154411593	-3.242706491213753	14	1.2426493969283245	-0.8457398982305733	2.04248812320989
Si	-1.2948040571459583	-3.569647557526814	-3.162974458636931	14	-1.9065162467959869	-0.781667953652483	-0.318855626278164
Si	-0.9388452037839118	-5.079466223195749	-5.334942839228539	14	0.6209790133538683	-1.4303575688153114	1.6741495181612203
Si	4.5203045840045375	1.1034319200009726	-0.9988733603361439	14	0.5463891911321165	-0.9035280614062213	-2.559571598792427
Si	-2.4310288706855916	2.8502281890616885	-2.855961198549684	14	5.985198941613109	2.569389364457412	-7.82613040546063
Si	1.6179670444445493	-0.2143765065336457	1.7901554974040745	14	2.360528709101567	-1.874893708242422	-1.8830081166328092
Si	4.292989667879768	-0.845150231403283	1.7777144902953177	14	0.6928437210467953	-0.1998576729668145	2.078843809547316
Si	-3.3527156705110497	2.4692406769255735	-1.2854683476063988	14	-6.412677082793697	-1.745631645382509	8.627099903861998
Si	2.884781808120599	3.7989283033826897	2.1204614617850988	14	0.4518136530357895	-2.0930064860928197	-1.1009326427870827
Si	-1.30693790335923	1.9391235775065019	-0.5261150902033765	14	1.0633741933808916	-0.6799635118349815	-0.21815314420392423
Si	-2.9193492989618868	-5.100110407897163	-1.3623437838552062	14	0.16031613002719317	0.5767516309682772	0.29900463632236474
Si	0.9569508523103786	-1.8796076860606115	-0.3561708934640914	14	0.5715731677429668	-1.3568581523598342	1.0105909438214435
Si	-0.4145512804382842	-6.011869965748853	-3.114219106949013	14	-1.058072574210746	0.26917004440843045	0.6218081948196161
Si	3.024316085365232	0.7106553745278081	3.684656523529335	14	0.7043388758226453	-1.0694995946956123	-0.1699426054563596
Si	1.4546268069582005	-2.264258339585789	3.981861442634614	14	0.1611707654356104	-0.6683883956836748	-1.7268476641345711
Si	4.072818719679029	2.102767012521943	5.2146358431996935	14	0.46874695267428473	0.8335266337388059	0.6098201591538938
Si	-3.957263799955824	-0.10021272841450926	-2.8592190857250257	14	-0.3486549940492123	4.531341984392708	-0.6104783621158516
Si	0.14301411293800223	6.573859466861727	0.954139834695888	14	0.28386776797105695	-0.006198420705812988	-0.45642724442226323
Si	0.39547460714544413	0.06793903587337878	-1.3185366951093982	14	0.014588965807584231	2.3041963057581865	-0.8009337600374166
Si	-1.770774635740544	-0.492060855310029	-4.1740639050390085	14	-2.5871029945605724	0.9594295474979451	-1.1010951366433162
Si	-0.02129120426512992	-0.5001292784453116	3.0811923747931442	14	-3.6636936977291534	-1.272383201513709	0.6634035366889717
Si	-1.5863413623087332	-4.0268833031799875	2.9306865085300937	14	-0.687022481491448	-3.2260982571137826	-3.3094570911404317
Si	-1.1066313475220122	1.8708218936081304	4.439460827154378	14	-0.991780223078176	1.3369097175124012	1.3401187140624782
Si	-3.2687547259925127	-3.8661301531069037	-4.994729449705712	14	2.3409001197559607	1.4142094847415894	-3.053086009015698
Si	-2.2627720771882793	3.9469213953523505	1.1300409711243933	14	-0.3999637147075553	0.5056315153760651	-0.6209962397595133
Si	1.1334960357778048	-0.3215211627701416	5.006595768687433	14	2.7201366118146106	1.018237153933032	1.2530042664946888
Si	4.4702987902195135	-7.475191407732486	0.8503174703386261	14	0.7356271706845914	1.517272241499725	1.6046211738727116
Si	-1.8624423462109694	-1.9492816855726838	-6.412770421486806	14	-0.7345498775554494	4.933147124730553	1.3132776600727922
Si	-4.056754204845143	5.395972736636692	-3.6010086849558736	14	-2.0020523498399214	-2.445025514342914	3.085658570985058
Si	-3.7412712307752853	0.060025184027437194	0.8107482111089183	14	1.3637728830078404	-0.15497363028245748	0.021563088988485895
Si	3.5399341996757943	-2.974061590339025	3.12695835737887	14	0.5701243498950634	-0.21743529159853886	-0.11825567520542277
Si	-6.838103049356628	-0.16046283348476964	-3.3080197968515304	14	0.021401880684912607	-0.818549173917347	-0.28125655340791456
Si	-1.862680148194571	1.1853665934509037	2.52393612399554	14	-0.8694421468454222	-0.6640900218094513	-2.5270424885029774
H	3.082683591398646	0.44940215197669703	1.1002295199551375	1	0.9729414772869192	-0.5160936000342796	1.3664913126628333
H	-0.7614696950570766	2.954501386346195	0.545269049140887	1	-0.20719226511360092	0.5666993804980942	0.03533264353053893
H	2.456123915846749	-0.004849178782275959	-0.5214085926112615	1	-1.6851286520993165	1.7534742879405567	-1.1451186303770196
H	1.3398457345232981	1.4799903701925077	2.6167769909183995	1	1.065396881936252	-0.09510210046589326	0.06518857561863044
H	3.0993118951019882	-3.698862219524735	-0.9604950927076408	1	-0.9454293648086747	-0.8922079989026733	0.3961960169714103
H	-0.1850693937379452	0.6265636389182907	5.115483315295408	1	-1.070713156406722	-0.6804425087561251	-0.3269561506998226
H	3.0737125115672757	-4.292084038658885	3.9622843943346124	1	0.5620312816788333	0.08668712986358061	0.010320673865606403
H	1.980063170666714	3.774734924076022	-3.5890739979038684	1	0.15235470240335464	-0.5349991945638605	1.6399317058974974
