72
config_type=liquid dft_energy=-6929.699849485417 dft_virial="-9.233500911885828 3.4668407797406764 -4.994349764299007 3.4668407797406764 -12.573714733235187 2.0579732697111486 -4.994349764299008 2.0579732697111486 -17.18932440576917" pbc="T T T" Lattice="10.7504953435 0.0 0.0 0.0 10.7504953435 0.0 0.0 0.0 10.7504953435" Properties=species:S:1:pos:R:3:Z:I:1:dft_force:R:3
Si	32.559079203268226	28.52901951285969	-8.510876900074676	14	0.61552004253813	-1.363084598113637	-0.34531589956993597
Si	28.45857151687374	2.758964122974466	12.326216946987483	14	0.21067534149080555	-1.065898761694745	0.2546237589491607
Si	6.3105730181205315	-8.19325351515097	8.535570787878695	14	0.006325690419160319	0.48510586738425904	-0.4550959260874906
Si	31.043657128162437	5.181534496155474	42.25107002475187	14	-1.9165327589022199	-1.1239520058289003	-0.6023019900872487
Si	21.669880968846385	9.141006434138585	-4.750600890311277	14	0.3198295609734361	-1.3789454897230984	-0.6726937115422628
Si	23.708325392908797	14.727673347313857	-0.17185741856119102	14	0.6654287963496525	0.4118445352814276	2.7623937561933722
Si	-0.269643924205667	-6.323215600644487	1.2768255814521516	14	0.9755017839647225	0.35112762603559866	0.682351811566867
Si	17.455160019922555	5.673584668027469	8.470842055415483	14	0.5165129473119958	0.2759011981365781	0.8376879676994655
Si	25.928893958585437	10.14941364785423	0.581429790157854	14	6.001147250803455	2.529565514153639	-3.090865059258358
Si	27.609723155046318	5.319914872217006	6.321549273866244	14	0.36293311322359056	-0.39380463191314063	-1.4791296369647964
Si	18.44697921932318	-12.501632779507373	5.84350699742683	14	1.1378017788569421	-2.2112125389655635	-0.36154137391379443
Si	11.756483695763357	13.591528747926747	16.780759946034113	14	0.6111586765835627	-5.955489048307202	2.5896949258338138
Si	7.842765865962182	20.379606517719516	-1.473763905649728	14	0.8619861985275248	-0.6964880057275732	0.009266777794877706
Si	28.675849778261213	25.667312905887396	14.490356162606092	14	-0.05460462056824088	0.17273379739191236	0.25209507686679505
Si	7.793485595307577	-4.119256550273551	-9.340901144555625	14	-0.08859514712166251	0.5429711637195116	-0.5718117663166766
Si	23.9517811104577	-12.777716250423795	21.75788452372828	14	-0.7284882396526682	-0.9974176286031329	-0.42016103254997855
Si	14.2014043487635	32.07090996021523	-3.4433406565416766	14	0.7008722545194898	-0.6518387049589457	-0.9097961590662104
Si	-0.32820187234171155	26.379909489731293	37.165902968855534	14	-2.764621361842748	1.0731654766610794	-0.7690875353209985
Si	38.306541275296226	1.86263082321481	3.6257550615301843	14	-1.277160315198544	0.6048538121174956	-0.43958290502784514
Si	18.43478815760365	-4.038767591636767	15.63524091470747	14	0.26247488615476483	0.045002056418551824	-0.24669138481543984
Si	12.543452206393587	12.350900084296159	-9.39571792031213	14	1.103096227913987	0.06814817495265289	-1.2876391120413395
Si	11.786929098576149	-0.5326762937750815	-17.447236904854396	14	1.0312675156955424	-0.11095142210141408	0.3561669924630889
Si	33.48274026219106	22.08430181384297	7.55043839658173	14	-0.3868623904382088	0.34764609232158616	0.2548425600119053
Si	20.453591426673484	-21.606184283936148	-3.5505875980884323	14	-1.2107124121941053	0.47956744941412793	0.6793641871848549
Si	22.569310411264972	13.452008819358804	-7.316647374346636	14	0.30651997717315754	0.48445460640666543	-0.9318207614596629
Si	54.44911956625415	-12.135019387303336	-9.040822568032508	14	1.1874361957308046	0.2118796472227629	0.7412630335463559
Si	13.146490492191878	31.991958322412568	9.531270916098322	14	-0.5063905056665728	0.4566537588009683	0.017686376386766622
Si	6.258949139481044	-5.840894627058359	33.54479212131374	14	-0.45801413062585866	0.36998077001664853	1.3384374682936335
Si	10.379581753158563	0.5660243303306186	10.858204556346527	14	0.5012639787687295	1.5826593064490708	-0.10868833519861973
Si	21.363416598089234	29.48306147162326	19.083333290190975	14	-0.6311251091682367	1.7243140969520974	-0.3887004736315826
Si	32.770584448656244	27.379006774479468	-2.0718569635900073	14	0.6088786203856554	-2.354393794697162	-0.9580475783883652
Si	30.646136061845834	19.257007542465214	-8.88045742899352	14	-0.3187137012644918	-0.5948825514648974	0.3478831482321038
Si	24.685986189942028	25.762347284723933	2.322623017972488	14	-0.4530665526582977	-0.16520020169334648	0.23751819525421547
Si	26.577836859500476	15.392086211028188	10.122827672869754	14	-1.0957235834084627	-0.3412155008053638	-1.6205268027147441
Si	1.5887082018624301	3.167773209401741	-12.833984343051675	14	2.5311914811581	0.7441516703735422	4.847306659848897
Si	7.5086512211815455	3.870834103875954	21.02654982650066	14	1.157008706930044	0.03272888517282497	-1.033085030046355
Si	5.186640981443636	7.504469278492923	29.930658345249878	14	0.2986225700717907	1.3936203304483756	-0.23481750622593198
Si	1.4587454636548587	26.573805423746663	-15.291182061734094	14	-1.3776869336688857	7.59861380990179	2.80979311121243
Si	10.123214690702119	19.843167550574208	10.594226143186885	14	-0.8152087938854107	-1.1828629706978573	-2.5544674405108685
Si	26.302022150967638	-12.226301843264993	25.298839677988934	14	-0.009818279886049467	-0.6705290979732301	1.2105262641689265
Si	19.192698079320397	10.56315721164417	2.8542457632039064	14	0.4429783067136327	-1.237427739133636	-0.2063286308365632
Si	5.837207207155538	1.466410566834774	-0.23536059455524552	14	0.25416661642323835	-0.4896112152367545	0.7573823212404923
Si	18.060197897854735	-0.2025070807855095	22.249730436188745	14	-0.16856012212571594	-0.2931024069494328	-0.4902568197826436
Si	27.311117396385267	-0.45732607191249003	-2.447834037238233	14	-1.0314477501784847	-0.29376626634309505	-0.6001841706350427
Si	29.606262148259766	-6.874759013747411	16.97887007422413	14	0.6857721529742601	-0.5760098670834145	-0.22566925638631308
Si	4.772596403784077	-4.341748801902628	-6.122364096141877	14	0.7346393520205904	0.1631194061577506	0.8186340203929121
Si	46.0351261302151	18.72201989219128	27.34820660532034	14	0.19505999043941818	0.46429379825978834	0.3947397429180785
Si	34.86074950581623	27.24171219844763	-17.258587212566656	14	-0.42547396458353254	-0.15478465404142658	-0.5989667522659526
Si	6.279342829147663	-24.611883025539285	-7.666500744310156	14	0.36490977899372046	-0.17031335884352494	0.20145047271264627
Si	13.367585179426298	-24.273736945004835	-7.55154569760211	14	-0.3772063472978606	0.23964938445408626	0.09651055196027038
Si	3.9810481821375157	13.802367462603467	-17.203415670463816	14	0.49810923254090794	-0.1067497217872281	-0.4144228396964721
Si	14.397719144231155	12.506287743991107	-1.058966793316124	14	-0.8011870139114511	0.6180965471794504	0.06119487772484443
Si	10.615028351676557	11.626391951611662	24.04102097230409	14	-1.1622247082930284	-0.05459227926270416	0.5457253317384542
Si	-2.9390349199780914	12.164680003956052	-5.627368288545763	14	0.2769422386807061	0.595379546123282	1.2098446641485552
Si	34.718391446477604	17.728491364031044	-2.3359213807123975	14	0.37636173920019195	0.9440214275353616	-1.6235486227975138
Si	18.978849225947496	7.491654688043472	-2.95251604113884	14	-0.11757253252185941	0.7202671303914947	0.3900937556045709
Si	3.8035252525303003	6.874457999877793	-11.259069026714956	14	0.26420266892990435	-0.47795202394147895	1.7680815085959138
Si	-6.848226791239653	-21.11812254583659	35.16090333580675	14	0.6051248066182392	1.299540244347241	-2.028999847589861
Si	13.706258034232578	-9.847862253469055	-16.619599270339705	14	-1.1906994426031368	0.1688072053469822	1.5085839624018806
Si	31.131746687007073	-7.5482560460269985	-2.463852275300048	14	-0.4709745583236611	0.09107677797666942	0.0984000572600472
Si	6.021051428024733	21.266715892474448	-5.021190858107171	14	-1.107222594842293	0.32782132764005234	-0.04682882674851704
Si	5.978113949622793	8.075213076279338	0.12101832608177951	14	0.252893662179233	0.7998739504244515	-0.015561357839664234
Si	15.273293237482513	17.182559709497426	12.688648396502899	14	-0.8216815515288837	-0.049726205333791906	-0.19050707713849996
Si	31.63348305518356	-3.4777959941175935	-17.202770640743207	14	-0.9281422810781269	0.13471717701767086	1.7244747910346063
H	22.02803694636369	14.274490516306752	-5.7636705938573956	1	-1.939816945792013	1.3512186899506213	-4.1856036522186715
H	18.735487037708083	11.900849947632148	3.494399059126095	1	-0.18633391609336764	1.1769391440402361	0.3616239063945712
H	12.85988551148277	14.694930563646158	16.780759946034113	1	3.8337903123941897	-4.267644280547681	-0.6403870018630061
H	11.756483695763357	13.591528747926747	18.341206170688018	1	-3.0107121364554015	-1.3788251619941154	-4.913357069970842
H	24.8893339594634	-11.840163401418092	22.69543737273398	1	-4.390551342387782	-2.136748700904499	3.497510305361382
H	31.911273704760532	6.049151072753573	43.11868660134997	1	0.7700948943854325	0.8277714715901863	1.0423101559350463
H	5.551998715791553	-9.02496666245038	7.433567611603473	1	0.06227705595409475	0.09413099398647333	0.018231707825170033
H	18.454534667450588	-11.083801551030804	6.437729877043449	1	0.6323561543955236	0.9420061951854295	0.9387956559721605
