1
config_type=isolated_atom dft_energy=-102.42257194 dft_virial="0.0 0.0 0.0 0.0 0.0 0.0 0.0 0.0 0.0" pbc="T T T" Lattice="20.0 0.0 0.0 0.0 20.0 0.0 0.0 0.0 20.0" Properties=species:S:1:pos:R:3:Z:I:1:dft_force:R:3
Si	0.0	0.0	0.0	14	0.0	0.0	0.0
1
config_type=isolated_atom dft_energy=-12.618154398 dft_virial="-0.117524 0.0 0.0 0.0 -0.117524 0.0 0.0 0.0 -0.117524" pbc="T T T" Lattice="20.0 0.0 0.0 0.0 20.0 0.0 0.0 0.0 20.0" Properties=species:S:1:pos:R:3:Z:I:1:dft_force:R:3
H	0.0	0.0	0.0	1	0.0	0.0	0.0
230
config_type=amorph dft_energy=-23309.209763945957 dft_virial="35.77876179197995 -3.66940889557775 10.546512984640685 -3.66940889557775 45.06163727615679 3.187444592516213 10.546512984640685 3.187444592516213 29.112263952994333" pbc="T T T" Lattice="16.45252737888635 -0.0333839140152892 0.16468190999459323 -0.033680074908475605 16.380543828459103 0.0037513713136944006 0.16408958820822042 0.004047532206880801 16.36950360849643" Properties=species:S:1:pos:R:3:Z:I:1:dft_force:R:3
Si	8.28501049328329	4.072811184452555	14.795405170534124	14	0.1677463672918891	0.25374624070339413	0.25998502776273347
Si	7.488059628439937	15.211063693444647	14.134245720555032	14	-0.2309875877410394	-0.1894081867246687	0.10700426121392276
Si	12.332656228506478	3.4263923202626683	12.86475863326471	14	-0.035379437647365626	-0.48521076848132094	0.22273742498974824
Si	10.76524938139189	3.9012912485019475	3.0975385551450807	14	0.4605435840398203	-0.4095835052628894	0.06008596000026457
Si	1.8229887619195668	13.3171575603133	10.311718461596008	14	0.012387842543005458	0.10995563301092073	-0.17245560379627234
Si	1.2247190776086063	13.63926214774283	15.852046359906268	14	0.061538377395616205	-0.03623021639780262	0.11685133747955788
Si	6.905428884627514	15.228122560892183	5.63958293098509	14	0.15064517447598819	0.024326255876049037	-0.2320034314530299
Si	1.706554752101629	5.806477820987104	6.062464489012768	14	0.05087471808030205	-0.12778470574295558	0.5165764536134034
Si	15.679558965037916	15.980358066879274	10.915052497180456	14	-0.3847533127440913	-0.08001099778928412	0.1667444075486274
Si	5.485279814958385	12.869321156358078	3.1975882862166283	14	0.14408962724120664	-0.13692781337193416	-0.12081623899375822
Si	17.00427018687773	5.796324438365696	8.267255647736764	14	-0.20172815208722225	0.17035681052343546	-0.04655269003713314
Si	16.74465554791053	9.395158084024441	13.36252447313457	14	-0.12219692255067777	0.1428698948773284	0.23893847383306532
Si	10.245677873092033	3.298151362836366	11.77543938000604	14	0.343336919805018	0.18867259349257431	-0.0717875745333225
Si	14.5411510437336	12.770692997573823	5.179258409367173	14	0.011635794236862146	0.045970077571587574	-0.18390859244487195
Si	13.493146235074432	6.384460484114796	2.8893588366328826	14	0.3126338085139377	-0.3644315534041729	-0.29438950227269894
Si	4.691415604757353	12.15369607278371	16.090289699753477	14	-0.15655665982807265	-0.14210781926043647	-0.27388442312345396
Si	1.6765042934729824	10.541749918010476	4.132262193083133	14	-0.009489178405070514	-0.06602187085289044	-0.1939194481194005
Si	16.643199052596348	7.189809155618278	5.091454931228882	14	0.08652437889681525	0.050803755573465975	0.29098330194456673
Si	5.193827879973648	1.8179293466609658	3.476061792726618	14	-0.005104158281557966	-0.1261980766498922	-0.07165953348837913
Si	11.419819251497584	6.344779860442705	5.908924809955166	14	0.10848547498886006	0.47696986170918243	0.5845266534564049
Si	13.460351352168924	9.146354962996842	5.816963561944198	14	0.14512706823788638	0.08928291779480213	-0.14334349247729966
Si	10.913734581205777	6.704368544919859	13.090785336267981	14	-0.09206176842481816	0.042871895660809144	-0.1619019877886605
Si	9.164662642210649	0.5110634639739293	13.73035959314867	14	-0.31459170521523044	-0.1441711312798553	-0.5050152214308256
Si	7.8088430092181955	4.520285613982773	5.346490593719761	14	-0.015291648891580701	-0.27339334200730564	-0.22394121650064155
Si	14.557801867283857	14.237085945375714	1.6225125173068062	14	0.02568277104295916	0.13369310576865584	-0.02186056587402703
Si	12.68634802053263	-0.0045098722679106805	12.38852039965291	14	-0.3489568418137976	0.24974714348843577	-0.20376935260088777
Si	10.408997442977968	15.833064091991314	12.080828975691787	14	0.08764666636905988	0.03653309260451607	0.019484607447678187
Si	13.748486285149973	3.235243498446984	10.988362190273863	14	0.22875869653900302	0.26504290614852877	0.37986435597782975
Si	16.178201770219268	7.959292742956887	8.692504847571639	14	0.07488549933356892	-0.07785486886780794	-0.00036021185535274586
Si	10.306364530782515	13.564721741604403	12.560680372200462	14	-0.014310772211944208	0.05221632083635532	-0.0605572436054477
Si	12.260787851759913	7.798255257286782	4.284536606991512	14	0.058809663319343064	-0.23013423788528226	0.22023908195016034
Si	9.981898882898975	3.112642760697587	16.13302242596368	14	-0.09541886064133552	0.911698519892588	0.12200100432528246
Si	9.803188818597118	6.638375671226451	0.15584479800957013	14	-0.12948857723861767	0.0501064718106418	0.023263618047231836
Si	16.543498133243443	9.10387561888414	15.674364632039087	14	0.3594572359412824	-0.24170858270499282	-0.06915861934347109
Si	9.426192454953787	11.446682689847886	9.268323890840774	14	-0.273138545470079	0.19765423570744758	-0.2104298009327314
Si	2.610900138167552	6.0621206133090135	13.444993764518914	14	-0.06457228167339094	0.02244832055021288	-0.08085714855014484
Si	10.764171684808348	2.076464643706329	9.78161349752849	14	-0.3418572486932727	-0.03045602806981407	0.2210183839726972
Si	12.681889153751882	15.519837750004196	2.3000003045302417	14	0.0899249227932431	-0.12326290281641113	0.03148241331361718
Si	2.1149935305715846	0.8782750007740422	14.033348640261313	14	0.043273245201284255	0.10117890789006323	0.04968326787494544
Si	6.407190832666852	12.608984213879163	1.0148973114775195	14	-0.42959724618545403	0.1320445130373769	0.06023971209840941
Si	10.224438201035682	0.3421283544855203	4.633876479226122	14	-0.24213384352494532	0.2609990717009999	-0.15973608866696773
Si	12.323746721636454	10.438625049664676	11.673135535469683	14	-0.2515626009549924	0.2218241683800316	-0.1301290395738666
Si	9.272203598541516	11.157491449681139	15.709741050730202	14	-0.37854872138550993	-0.9935704837125952	-0.2569243839896292
Si	1.4085329813030412	-0.21562322896094951	6.011019696527995	14	0.0035031309987017577	-0.47758255610697364	-0.4582321603570072
Si	5.847734678746265	1.9589299025687152	13.438446963441198	14	-0.3048698417786865	-0.20894318783662177	0.3031333172454585
Si	13.457187366626716	1.277532791555219	2.9799741979181484	14	-0.2870824209528381	0.05574439155666251	0.2201961444913139
Si	1.434634628022536	6.666690297953367	11.547300062631374	14	-0.1633986281955187	0.0327067736670717	-0.10628769416119749
Si	4.479445026812369	15.872877988065339	8.953980364151025	14	0.0557665030624158	0.12376503968543606	0.019370707481995625
Si	1.1064538062677995	9.60797930186819	9.528440357988094	14	0.08116465274643456	0.12367736499401903	0.09697489358108913
Si	7.00241828646947	4.447545207939602	9.151180740217486	14	0.5083823409580915	-0.06991221031280649	0.09941615808256973
Si	10.779981740489617	0.9964382611405294	15.42499551463784	14	0.9242601691552355	2.492391959213874	-0.5042040377023189
Si	0.49548046497743825	5.579031191034836	0.4708053265601247	14	-0.2186218567037872	0.33791163046897355	0.14752410972786043
Si	1.774263713637222	3.6712910535150933	5.016603556152611	14	0.26842879474463177	-0.0088134919269356	0.3708138081403765
Si	14.761621439313034	2.2381652007095125	15.19605820818987	14	-0.031426363217637955	-0.3384106820116143	-0.09193424160093883
Si	10.87888302543092	7.45055085131788	7.944367879278588	14	-0.13011027050502952	-0.25518940211959323	-0.310816037052593
Si	3.7340985522684513	9.265508717017209	4.434035335195416	14	-0.5249328030144167	2.2263882310072054	0.570983099071993
Si	7.541167857941441	1.4893075742430408	7.659485780107703	14	0.44304901210993675	0.0883848307064744	-0.08466598397141221
Si	5.911845285429643	7.909970436873284	0.701952322338928	14	0.2673273332254803	-0.03685113833261839	0.018300356337217983
Si	9.163951856067001	11.230914671116935	5.249690405781785	14	-0.02790292048690703	0.39031307088837947	0.09743974942297189
Si	16.339086239427893	3.5672612491067794	1.7858617032820607	14	0.04193369932948711	0.09652546437112723	-0.6406739372167346
Si	15.755103027536586	7.479586136218216	12.314108329901533	14	0.04395355966899544	-0.009584823522980025	-0.15325201816008632
Si	1.4997143389619518	4.897785451144523	10.051912963386535	14	-0.17576847300128312	-0.12689201797580016	0.44089982517282494
Si	8.059034795767179	6.090775825063093	10.404110788240393	14	-0.08653132088117964	-0.23725131452198414	0.12385117171366102
Si	13.510529234166178	14.297071688952325	13.122224460418012	14	-0.09608400558765783	0.9990603077921754	0.23925677667169964
Si	3.279185548304368	10.552972770523946	0.9505168693136825	14	-2.6391997589995406	1.216856068356599	-0.9898230977084792
Si	2.9357886379930327	2.607466317144885	15.56316115266248	14	-0.29898740991671974	-0.48703008260585784	0.05190830241900159
Si	7.3714709568222245	14.248030735717245	3.615894158444577	14	-0.21257615965399101	0.05481416565183295	0.16051384802631255
Si	14.373499298115666	1.5195850895564638	6.74504295292242	14	-0.0988461440330929	-0.15288280743611304	0.41410222286304954
Si	14.232066018236203	15.662832455926067	7.365679366022135	14	0.16742600756899864	-0.049609220041725174	-0.2921876076765241
Si	10.978037692469726	9.081707976029136	13.117441461993051	14	-0.05091431310223233	0.09884023049085655	-0.018697849219712875
Si	4.047836594465465	11.55913169031417	12.609977998209633	14	-0.28579249741371976	-0.07637236954021057	-0.04234636173337088
Si	9.726683878533889	14.866914863532276	8.203378679091346	14	-0.3426229238576129	0.14299356504322752	-0.27934133705493625
Si	2.57766265926056	0.6574179506951708	9.723649874717024	14	0.2636884478658748	-0.06883311740994034	-0.026404480306324727
Si	1.5274514519471538	2.084317843390655	6.758487012134787	14	0.09652417881846717	0.009023551231591698	0.23225977065344866
Si	15.482187473788727	6.999420480095105	16.034438691313404	14	0.3039912950907919	0.18173472289668674	0.022356789200815606
Si	15.099271182958258	9.436513662081332	2.636355166936923	14	-0.32832423584067333	-0.06984356180075853	-0.594182696596753
Si	3.833266382013622	9.057069035054326	6.784124673454956	14	-0.09731067993590047	-0.21515703517435567	-0.04931894225108045
Si	16.27150396894105	0.4001643721819863	14.860718519511499	14	-0.0038800550386354662	-0.30567896862293714	-0.010598096129650382
Si	4.302919971766911	14.009014086871163	7.513618313521923	14	0.020753190812639245	-0.32594673475113245	-0.07340865643767587
Si	12.930935784847213	14.251304958925253	5.97944729997603	14	-0.1859302525581044	-0.09240835342197413	-0.173248532677006
Si	6.014817137313963	9.614312208967492	7.421321416498677	14	0.2032011383251351	-0.054938350038796095	0.10989418359376919
Si	7.824608640765485	6.7095151631081205	1.5314677227264204	14	0.06580564089546599	-0.08583352289729146	-0.07512229813355456
Si	12.553714009857398	5.3895490969124715	14.128605500878125	14	-0.012413296485674926	0.08787832295840523	-0.19879477802746529
Si	6.481479502046069	13.304090283570599	6.956514993363873	14	-0.07588308819778637	0.1906829407423981	-0.2307433327356253
Si	12.838224262573505	1.1504485069506394	10.308646614998347	14	-0.24650832211664528	-0.46397241009476986	0.09561812130364698
Si	10.543048089925609	11.186949586523411	7.212373325002491	14	0.2040138647168339	0.06700686130103915	0.38830863718079206
Si	15.699401744881406	15.167847237775568	13.17897053289082	14	0.17834909141111574	-0.14157457201703777	0.20428203100172532
Si	16.28595003917537	15.454118002467839	0.4684376847529289	14	0.09835969090652087	-0.2040210638117303	-0.1775458781091015
Si	5.303435381203639	0.5655652950117044	1.4527629653621346	14	-0.09613851302044496	-0.16251493929698382	0.1111185439472237
Si	11.104294371911678	12.242274505259171	10.781047919705088	14	-0.06968929548154966	-0.05905494676688517	0.07439261844369653
Si	5.664269586770472	8.62378564832262	14.852243381951482	14	0.13147398476683603	0.01851735762623848	-0.25771371332291465
Si	5.557651665223368	16.07481693842278	13.039342189121504	14	-0.014546799680333802	0.041373969701290876	-0.1552829342524713
Si	1.8844684726684726	2.3446926286503653	1.418082524770007	14	-0.29091568187464684	0.008693935529548715	-0.19131774664594264
Si	3.4799941512528156	15.423272845442474	1.5214443218303562	14	-0.2105984654417331	0.03550130803954065	0.3417590324700431
Si	4.729032974206913	5.226234463041423	12.982169974030164	14	-0.17398258324590826	-0.5653629199526812	0.040614208079187114
Si	11.535535893818691	4.909610497474138	16.225215666674313	14	-0.17656551565052903	-0.14845433563269003	0.17042571614601543
Si	5.255656402441196	1.1789951263772174	7.43648156355323	14	-0.20435530750334951	0.08529281944846431	-0.17306341309395534
Si	0.9752183331437239	15.299072838869872	9.412954063028353	14	-0.28563128911014646	0.01712381854271822	-0.01616068248979075
Si	15.70229424960486	1.9674626269690747	10.532313902885898	14	0.04704557092700552	-0.09728625443535906	-0.1958603755255803
Si	15.853207968742876	13.956475144419896	3.6345490040387296	14	-0.02621576117582586	-0.0951236977505825	0.22234687409161774
Si	5.608487682538813	10.962313194379824	14.3119323844371	14	-0.08509998654945321	-0.14904517563526	-0.08469555168259392
Si	2.6704597391256324	13.512019910661882	12.520305415767677	14	0.021948240565444078	-0.12783972739680674	0.13415307651043037
Si	17.09807585911793	10.72426071377489	6.410769443459521	14	0.42461367274341105	-0.6541845814530488	-0.19973863079049164
Si	12.811242359865927	13.23309229078234	9.467788252401816	14	-0.11067888493747838	0.13620224745058837	0.34765946206925097
Si	14.611494191880256	11.702932612000826	9.14289810723804	14	0.44843496353458295	-0.022018688851216134	0.1668626783933542
Si	10.195113336595341	5.55342479114228	11.17895324240738	14	-0.1521371868932701	-0.13702345848984368	0.04348870382711267
Si	1.2894878196101767	11.917489661746306	1.0462360699915272	14	-0.32923260735028165	0.014373764292287835	0.10319362601893128
Si	1.4468150674239744	12.75347946832651	3.2010813394179323	14	0.012397869853754037	-0.37921052389491605	-0.384974427801624
Si	13.73906343273176	15.430759134686909	9.639681680145499	14	-0.20012635347277	0.39966135272190595	-0.06784992673551571
Si	4.451926743820466	5.054726044458883	-0.9434830481005055	14	1.498296712905436	1.1425295273196303	-0.5876788285789064
Si	12.62596245975022	4.51082985479865	1.760075961515298	14	-0.19085520479884804	-0.07307646963031274	0.04482979236210191
Si	15.731201198118148	12.445006508675036	7.142173321287541	14	0.007537709467078124	0.216916956765997	-0.011219789396062187
Si	13.818186106023097	7.929253801696308	1.1950931162601934	14	-0.07698095016948961	-0.30974722857100745	0.22806295543937094
Si	11.197614669354714	9.219883486083548	2.700036340325181	14	0.43183487914557883	-0.1953135014239848	-0.2757903834972797
Si	9.645084971107854	0.042846254552594686	9.982357932283414	14	0.4617682015038068	-0.09868339306632752	-0.08087128962940567
Si	3.5040638051773927	14.192067844273087	15.890288957908108	14	0.07164102153007407	-0.03437002169867549	-0.2358559756647398
Si	4.035289244624134	6.507059576525897	0.9394651319829433	14	-0.2814735546969351	-0.024211841689302446	0.22563866023300333
Si	17.072981159435273	13.286075474573387	13.762703653361216	14	0.09760147194760921	0.09688439067381992	0.038964844016312124
Si	13.810262156792065	10.787425250938368	4.157065667887496	14	-0.21566817091200108	0.4168785023877455	0.19199291890301357
Si	13.820670566849271	12.107970476214026	0.7501837691326287	14	0.19835203369133578	-0.13829384162852884	0.04953105843999266
Si	8.725831174746588	9.502567413291672	12.526970681202666	14	-0.10929023095406641	-0.07563369098173202	0.03489144185760152
Si	16.746809295739315	-0.2623261564781493	4.103225262844503	14	0.32476479763546034	-0.12941607206858952	0.03577950163518067
Si	14.991228398447268	5.599306694850035	4.514166600861884	14	-0.5719066401029901	0.5223557841520323	-0.05311492214574708
Si	2.348427546581105	10.532249734692375	7.8249640338373085	14	-0.047585245933704605	-0.5717487742363331	-0.442080990956901
Si	12.094396435276314	9.467016588741236	7.7293781055613975	14	-0.09444158350914722	-0.09658845645147088	-0.045060934730383216
Si	7.300884298607837	15.77403758064097	1.8011896748427523	14	0.015074390492028187	-0.24324276124952518	-0.036842139463997864
Si	11.27028761652777	9.973719906232143	15.324096789005827	14	0.09727571290354645	-0.17066817137770537	-0.16599184502142006
Si	6.409336353804157	3.8269022134867057	16.196971789494103	14	0.07295588479079779	-0.23112642742832737	-0.03179943059959144
Si	5.063849445307318	0.2873385892460363	5.303275783388978	14	0.2302046861710543	-0.3579261427231342	0.1840816278329179
Si	9.020943987438764	9.69600819135296	3.406671295453045	14	-0.033093982128286	-0.18272279867121966	0.7348620097413153
Si	6.06203834639424	9.821761397276497	9.762057006548414	14	0.10621621743329736	0.024861560003703865	-0.42742697618471703
Si	14.186572414366182	2.7319855193468117	1.2246055492662185	14	0.19577501482895138	0.33672300847946907	-0.30927363097103616
Si	5.795218771031134	10.004036909664658	1.721989670651527	14	10.05001283722282	-1.0322113684585688	5.06436219919165
Si	8.036538085253083	13.285797412401452	8.742899914223896	14	0.08377175354106471	-0.08042288886157184	0.1266151099328202
Si	3.431168737334447	14.015648090878537	3.411748809432896	14	0.10512555455649053	-0.24581412368020533	0.036871964285711586
Si	2.707983324292349	8.458624944884043	10.785278084462767	14	-0.2353073017894202	-0.22447677773882843	0.16740312473164934
Si	2.63571183966339	9.640644203048353	12.757341077306004	14	0.1876166405375895	0.01045848511076634	0.01702483098789252
Si	1.5730371947617225	4.533362762755249	14.923274281505648	14	0.4399935105474728	0.1030133915359889	0.170071160722367
Si	7.398436406146847	7.800168785724425	13.495510586205036	14	-0.10268069050756173	0.25849455800864357	0.14050499220385618
Si	6.61886524971865	4.723925844137742	1.9347121681975452	14	0.10096422059583088	-0.03877818177006937	0.19273931077745254
Si	13.471301078525343	5.061231712079211	6.221504533992161	14	0.01566883004204642	-0.033762983732588535	-0.13026659370849453
Si	8.988759525040882	6.31312684231426	14.40852690508814	14	-0.007103192667973098	0.1481051795302139	-0.025897972558255555
Si	15.737473227700518	10.75302122717988	0.8432292950803182	14	0.095791928023289	-0.02262161304879086	0.07014258134949176
Si	4.899407754703867	7.807113758669646	10.189935456979466	14	0.01529756243381704	0.2591856711186994	0.43338679831682025
Si	17.09318262302717	3.2974422220310142	11.848043222970684	14	0.3263606827076763	-0.2231814548785378	-0.44489943660884734
Si	6.209317513237541	6.6981771369139675	11.829523295116763	14	0.2991362769147563	0.0037754110521054395	0.04330024180714581
Si	7.863155626351991	11.308100781234492	13.789160693152533	14	-0.13321282329485218	0.10550350703855231	-0.03270368834068752
Si	11.48482985822859	5.574801026277156	9.2213577091963	14	-0.06053256099437428	-0.14717546784644836	-0.05767889119954193
Si	3.275379880826923	3.237650628373271	3.200939840324521	14	0.07492072347645494	0.07206499679736648	0.10126195459190404
Si	8.435271013118001	7.413453408769692	3.669196537864947	14	0.13885022881980888	0.1432699588651434	0.13392270547374507
Si	8.224292574165192	2.61084255132721	12.949544560969091	14	0.0501236982162868	0.34855934893130275	0.5839820933495976
Si	3.375732354144839	15.01936203796168	5.556223511582892	14	0.14976097135638927	0.3940458015921705	-0.06103598341605927
Si	13.7190281483077	11.869166076008058	12.966804159688676	14	0.20018163223715316	-1.1234922921976578	-0.18726362777713315
Si	5.098184364857396	5.980105435294222	8.59411197216364	14	2.3037944419966476	-1.7616097793945695	0.5435954280912436
Si	6.858257035696103	6.695667996013361	5.248982910314729	14	0.1926380092278387	0.08911116795941622	-0.4259041105035933
Si	8.418317447321375	3.6345539400536158	7.439584671578506	14	-0.0655055929046047	0.010074104865404205	0.37080095261377577
Si	16.570384606329878	11.624461492674499	10.519366735838766	14	-0.17387331126980196	-0.08752531019794889	0.17737438538424763
Si	14.839663125344241	6.005894467737575	13.974034194709258	14	0.1320769089644108	0.09490515379836992	0.1283495775817921
Si	0.7403808435681589	8.601721661780235	3.1245237485292483	14	-0.1267212965825423	-0.3098770693896749	0.1322440308102204
Si	12.480784389910248	2.941397596242324	6.4592954058081125	14	0.115343127098759	-0.19478102551218213	-0.3776899722085805
Si	5.938542544612102	15.59475658395058	10.743988319937696	14	-0.000748191648163091	-0.07570748170442027	0.13777653523811503
Si	8.109862586391149	10.89925724954385	1.4659026369898378	14	0.06445246816547205	0.851139476513416	-0.25532104271198486
Si	9.325706709233936	0.4438053251312979	2.4189599086317415	14	0.21719540747216906	0.10322782171968925	0.14319102593181485
Si	15.70690613284709	8.804512897374735	6.537768170472736	14	-0.054034092297700016	-0.2947096048850574	0.20053361655548144
Si	16.421932313281904	14.725953795743619	7.481988330129616	14	0.19571613651711997	0.43121010055278297	0.08482282139594123
Si	2.5059324909308143	1.8252395847077836	11.840374301175453	14	0.024410073909485863	0.17893144676612927	0.3944556357802021
Si	6.862556304662192	7.446894909625323	7.427252861053883	14	-0.2590180350518258	0.2507318768260525	-0.10348698913596018
Si	15.97646519647217	11.481241375406148	12.78298696531765	14	0.11176337716151685	0.14506690437339492	-0.2153125870462246
Si	5.212619288646326	1.8498373922252094	15.780852571860846	14	0.3209863012569707	0.4145827624473853	0.18380086313195773
Si	15.206372833964233	1.449176127877988	4.540051062926375	14	-0.5808260615691158	-0.56711101445985	-0.0942556925945005
Si	11.492628761749165	8.279238646542746	0.5542749836281206	14	-0.15954479843114877	0.3116189932440752	0.32528956023130257
Si	15.973302856268257	2.4858527823727767	8.178673924584713	14	-0.32085877443309135	-0.06045157117678962	-0.11715987011797564
Si	6.7899244909465235	2.8167895457724414	10.91534536739705	14	-0.24299362114400286	0.6263294835250965	-0.31468349367515974
Si	11.689070636861407	2.1644622717634863	4.396042828614488	14	-0.020325101776834595	0.046366027790890385	-0.15102312695804992
Si	1.8596946139534303	7.204172958937819	1.528104651250459	14	-0.15257658879248343	0.0730394457137026	-0.15319493962197905
Si	12.836610185705638	11.714380875860776	15.114562957076448	14	-0.48513877753235685	0.28009775624012384	0.15694875338939523
Si	12.234016552354156	11.32498030680782	2.4004695968671372	14	0.18638636664189867	-0.021638679484898247	0.03570982468100466
Si	3.479250458343259	15.321326039316238	13.827462523333013	14	0.1629648827280097	0.17149632440132506	0.09210984809430493
Si	7.216907877344833	3.110181334607549	3.520810058348788	14	0.06862254388422022	0.01855566709550869	-0.03700103377278302
Si	11.63772950068925	13.688128695118584	14.578332398534858	14	0.21010301344654056	-0.1689753556349199	-0.8791838077929313
Si	7.683840077557398	14.360445184079326	-0.025241134790958682	14	-0.273658937186877	0.2738067757427855	0.061035726305527255
Si	10.111864154858939	12.364529721966516	1.998622043608875	14	0.10146584324379178	0.11521971404339192	0.46162936181651887
Si	2.1915840282261785	8.76594452239039	-0.14567660734350374	14	-0.14431922694629584	0.33148618116339146	-0.39905791430326715
Si	14.50638504555011	7.536911367771034	10.277539849184002	14	0.13816245814666925	0.2042812596701293	-0.036590171142623355
Si	9.061297554473708	2.722824275717579	2.0094352068867694	14	0.3332389036601364	-0.14499517053496278	0.057322278891637386
Si	16.146216393755136	3.5881570454593756	4.095653416008704	14	-1.4955091205173319	0.2545751650586099	0.6259515310430347
Si	3.3735144381225317	2.3365383320579665	8.202016338982688	14	-0.22966783938020738	0.3103609514109268	0.24679757146516196
Si	9.966794677346467	13.699856666488767	0.06329451888882012	14	2.339724610403589	9.64094123902917	6.198667789034255
Si	12.717176724175042	1.5253849070480308	14.172833839598924	14	0.928785571629228	0.6877267072386367	-0.24685850666124942
Si	3.7155161015593	4.239248670408426	9.582845114066437	14	-0.22476397020308897	-0.17787112293210022	-0.03902552210186762
Si	6.753322295225274	13.430565793005849	10.680764550595581	14	0.18404923190588404	-0.017179097307101404	0.17356117908393598
Si	6.887422302321781	11.195911744218892	5.903720604926563	14	-0.04092685448611712	-0.13544839937072095	0.023644141634613747
Si	11.476537353219369	13.349590468793803	7.533786870347917	14	0.1855016493012357	-0.030284535344960194	0.07911856713266072
Si	1.400929873039628	0.07185356870190708	1.852316917036498	14	-0.04977094256636248	0.3557659000331458	-0.05909017090977121
Si	9.529611838854477	13.299440557547571	4.040745186411946	14	0.1295996489884481	-0.055170520849205464	-0.21018246060093312
Si	3.4417696519722245	8.081452530043096	14.291701304755877	14	0.15085137712266405	0.12663670721750947	0.29546191030173263
Si	3.37784332317794	12.368894804464425	8.849274325703268	14	0.20692975526041382	0.41763595001506115	0.33743674731634216
Si	13.726109684331446	5.263817280386776	9.771710206327993	14	-0.008768240473300994	0.13040260517993035	0.013842831043677258
Si	4.623015601137658	6.885363984114136	4.534246309419921	14	1.0094766267756914	-2.095727486853132	0.7266946365813329
Si	5.029136097949282	11.785237369555622	10.47483236419501	14	0.0005988104290624875	-0.07061206518095081	0.03331818251220291
Si	8.833556408966547	-0.10804113917269421	6.49263654102772	14	-0.046289408852349966	-0.1297420882231843	0.1399583752127927
Si	10.83356711809681	-0.5527875978090067	0.8780561707807434	14	-0.0013616573775504226	-0.049172903468896044	0.9755326372285643
Si	15.027356736739417	4.644826205582541	7.948384150057854	14	0.0251330687255115	0.382595126938359	0.22896978428578718
Si	7.461155056632249	0.8209464785446325	9.90710344932475	14	0.03207325331618721	-0.3721446122540851	0.10990292535185771
Si	4.482304624769913	5.257337938179177	2.8389127644934655	14	-0.033579663923261976	-0.12358994741313399	-0.14291386077830293
Si	13.40686140418287	9.646360108286851	9.716165230810885	14	0.06666259029867133	-0.01456865407555506	-0.02284529921164374
Si	8.698138485895363	7.707738616299245	8.821673775796592	14	-0.10976125744871754	-0.007920289938716157	0.17350975697753304
Si	16.03080578435699	3.9255221455794813	13.951163992402085	14	-0.1436913630271157	-0.008581835337590257	-0.023652883392702252
Si	7.982607186603839	13.37068206040356	12.740823526157678	14	0.37568245317460885	-0.1589814692555043	-0.0744424978869074
Si	3.7582784438588255	6.679247519824471	6.712170739117025	14	-0.4953879746700632	0.4039389006430362	-1.167195683319003
Si	10.771959070960856	3.6251261516205155	8.016196767906063	14	-0.06948206439274572	-0.10392356281932132	-0.01968361099945765
Si	8.341661136134961	9.599352793184988	10.197390484796285	14	0.0007569334062515944	0.1479766242642065	-0.16002533801548444
Si	9.766904173166898	5.543616929562924	4.459156360290805	14	0.09614494078374533	0.13389210932043533	-0.19362505656024354
Si	4.526486894018438	3.224739658768639	11.702703909977755	14	-0.2609036836936224	-0.1570508262706051	0.20631654664155852
Si	11.453751063165267	14.805310107072915	4.2567468431808555	14	-0.1647422878358281	0.10558835351411722	-0.0619654379892928
Si	5.594833020024625	10.634570032611686	3.9898910703752497	14	0.07028682035795207	0.25843773658106833	-0.18284801150031085
H	9.839552440265521	12.719638150265078	15.808418569663319	1	-2.538104412032382	-9.04609519725982	-6.073717726906763
H	5.748910724704849	6.19734932247622	-1.1240260192635259	1	-0.752307216449052	-0.3823678412280579	0.08278779153504405
H	9.237587326142915	9.766858103694624	1.7646154498725273	1	0.3370888767665261	-0.9229239657203544	-0.5395281965853013
H	8.183683979694448	1.633062426457424	11.71501268576624	1	-0.04040594854825512	-0.9116116165327668	-0.7471639773666278
H	13.661806573067496	13.164832140917762	11.76801725895513	1	-0.25098050271051087	0.3202995590259592	0.3453992033823088
H	3.986863647911566	6.874514623393741	8.269004642344859	1	-2.0542018219379528	1.611556216252747	0.5318979273266979
H	4.29967700998652	8.036006640983642	3.547614264520453	1	-0.1278042461433887	0.639479401684994	-1.0646939417417234
H	4.716069353776825	10.065621922064473	1.1847784904858294	1	-7.528287651632441	0.16317237092734568	-3.829314532252876
H	8.629835557235102	4.992482896740874	3.4618361978238985	1	-0.5004579372508632	0.026735638671559796	-0.2733336923638783
H	1.525653097190194	9.064283843480005	7.006270023419189	1	-0.056876706339655726	0.26293999910717963	-0.2596983495195369
H	16.87553233728619	2.3182207808143875	3.8313824696652974	1	0.91638590200175	-1.7319006574202584	-0.3184028546312859
H	16.734294852663893	4.926560772594173	3.817584662719402	1	0.9599028879873841	1.6914378874444278	-0.5717359187097323
H	9.599946760309654	0.6742333080749764	16.18774637767135	1	-1.8041155496577892	-1.1134590679068441	1.092049731016503
H	11.26543222321781	-0.29078557297506685	14.994323279781065	1	0.3503452386866776	-2.6539170229626	-0.5707529851458397
233
config_type=amorph dft_energy=-23351.927792600123 dft_virial="31.114511789287207 -3.4287973132391527 5.503908689573015 -3.428797313239153 45.948315768548795 2.569571508975914 5.503908689573015 2.569571508975914 59.89047032829192" pbc="T T T" Lattice="16.55616437812862 0.04720459853175219 0.17977815884172757 0.047237712946716595 16.379714217990816 0.017517525516167597 0.17876816918531338 0.017053923706666002 16.279559669930986" Properties=species:S:1:pos:R:3:Z:I:1:dft_force:R:3
Si	8.35313766630187	4.220137468919597	14.675772258699656	14	0.22436776287325413	0.3170630516489568	0.18057823972368414
Si	7.661607682879558	15.183649696729406	14.082438105692026	14	-0.020549816381815536	0.08010690001772564	0.0881750285123503
Si	12.49127887660737	3.501557975633613	12.758008866262617	14	-0.17084686319745568	-0.5405417263025037	0.2772258315975184