233
config_type=amorph dft_energy=-23366.83943637985 dft_virial="14.963459460066526 -2.4560824574215365 14.756759451273624 -2.456082457421537 41.27920763834712 8.081565049667566 14.756759451273622 8.081565049667566 44.94306661773503" pbc="T T T" Lattice="16.5572074822 0.0 0.0 0.094127724536307 16.379515531501028 0.0 0.355566030680245 0.032932285682095795 16.276629044206636" Properties=species:S:1:pos:R:3:Z:I:1:dft_force:R:3
Si	8.486669888925066	4.224169148941512	14.653544207654802	14	0.16095093593073773	0.07899901073527384	-0.03922426854311506
Si	7.888361950789783	15.151371420742858	14.020952915706877	14	-0.004564997495922914	-0.023562380485433042	0.15006127645778256
Si	12.55476252153562	3.458671496813219	12.791009036495389	14	-0.031079778220481993	-0.4083702006623115	-0.029824821713717715
Si	11.090684827039093	3.726818783428944	2.971755483455933	14	-0.12427746097574158	0.10960673401897664	-0.202019458319995
Si	2.04469425643708	13.324998846445318	10.164691539902842	14	0.0332017114412002	-0.18418421493519183	-0.08901115196246247
Si	1.6296282449488009	13.557481908144386	15.721616547916561	14	0.11382720340199971	-0.10961701844025724	0.06294837155318542
Si	7.311798593240874	15.249249352773884	5.446162257120045	14	-0.04089985788025556	-0.11854903832245164	-0.13340514197279926
Si	1.9049166551515992	5.704722920603578	5.964816781499961	14	0.09397647055673244	-0.15816231510050513	0.01657488755686661
Si	15.931734133748671	15.919135754575464	10.738395467719574	14	-0.08352647009352258	-0.009092199743639652	0.045159665174676906
Si	5.797754558004563	12.92051785770041	2.9261801141404296	14	0.10135734259928153	-0.18794188536058826	-0.12737692843918008
Si	0.7115774502417611	5.707122059967747	7.983623844038621	14	0.03661742485901693	0.238446364274789	0.04086823328481775
Si	0.47277284672599057	9.389426791080798	12.990202176830746	14	-0.011012044086194222	0.012682491212694429	-0.08032287286461809
Si	10.471016435531023	3.2313476609656053	11.710061811695475	14	0.030547559419211345	0.12085094891558022	0.0024968003763957995
Si	14.893173360103185	12.77886929196944	4.9418942903214145	14	0.17656962941904125	0.08464284402353088	-0.02228274136759534
Si	13.731456765763602	6.277282745383291	2.7174483665745783	14	0.10122261668050576	-0.06145918735175566	-0.240200886545258
Si	5.095430931024603	12.065343058407025	15.828276422796144	14	0.22620713161928807	0.048271473943652124	0.026016500513514382
Si	1.9151523208170953	10.3807647532663	4.005484863958111	14	0.07266432144749299	0.06802810433420198	-0.08928394623693017
Si	0.338151159850467	7.093331207675489	4.864694654714908	14	0.09803264630979805	-0.09306372816807987	0.13490821014295784
Si	5.462303878694443	1.8877948468942563	3.3948335276448485	14	-0.18089731389391453	0.029415501746750145	-0.18516200628844412
Si	11.807880137779563	6.350773566513784	5.766665089515236	14	-0.2364241899404925	0.06250614143811994	0.03894427517375094
Si	13.820312675437576	9.168551987547502	5.609855088892816	14	0.1259533074234141	-0.033494817447697084	-0.04136471372213834
Si	11.224960468278237	6.705172314066534	12.83095164382545	14	-0.047602986560413625	-0.08623590087989463	0.036525893509619656
Si	9.395244993790042	0.5125416033774867	13.544226207834138	14	-0.0021111345783735875	-0.07648189862684887	0.08759215893627273
Si	8.091417887630735	4.527536927313374	5.216791950427632	14	0.048117207624443235	-0.24059606543296477	-0.1747958238586711
Si	14.812445383582224	14.189251962601194	1.3442217252536302	14	-0.009701037483450718	0.0347400037542448	0.07051050652080496
Si	12.926980135780713	0.11822839574739732	12.078237811594162	14	-0.2096738959686079	-0.09386617013849809	-0.014984401805823005
Si	10.808505307082202	15.826766405473766	11.901017741308435	14	-0.09421866867789039	0.11529221921342009	0.02744269263460052
Si	14.20495812961881	3.6297355973570644	11.114303683512452	14	0.2461720215407699	0.4490841676279203	0.22591813938130345
Si	16.575324378627023	7.920752815787211	8.455548961741524	14	0.12893887492117004	-0.13183856750123304	0.1287141603161891
Si	10.685048145211924	13.555895727667592	12.39599049182656	14	0.1969574661656875	0.04085794886353716	-0.23814940161031187
Si	12.598223535455647	7.800232902524278	4.117272505994933	14	-0.05899426868132969	-0.29081283766184096	-0.032900892118742885
Si	10.225625374878833	3.2557960335338216	15.916349176556212	14	-0.16859277516328186	-0.08342465432284472	0.056331889122316355
Si	9.94271402635123	6.736675712742915	0.13318452126606856	14	-0.00589040228845925	0.050946194808202165	-0.18721786210243452
Si	16.83682063499715	9.090385411024036	15.255941776038188	14	0.1286861352681995	-0.09233610536247795	-0.06314351844698465
Si	9.643109701240073	11.52877363553137	9.032749771778496	14	0.027109734495641347	0.017375272643028704	-0.20056601248251532
Si	2.962504971635628	5.790568729957288	13.24930922816119	14	-0.007517140624516939	0.14229705261199938	0.14332369496633451
Si	11.05228866288787	2.1220362840279323	9.690602395182015	14	-0.1393528799098978	-0.00451074717366779	-0.006544748592436935
Si	12.962420838396364	15.526370645844962	2.068922418145783	14	0.006638336826090325	-0.028952445678591475	0.0010017026327296915
Si	2.3399241673314397	0.7416916992103865	13.903386808258768	14	0.04493855011714417	0.08214552942607105	0.10274316836684133
Si	6.67915928539125	12.40766497882226	0.8248304051407573	14	-0.12156468775245333	0.07786026818898024	0.06831118302995028
Si	10.337514015881297	0.33404662811562963	4.372049847568781	14	-0.0446143337362735	0.09680674329315143	0.16523851116261667
Si	12.588958122148608	10.352357552389089	11.353033779594552	14	-0.040181491053806195	-0.06219529480491404	0.16628212281206478
Si	9.500523997565612	10.772223498326456	15.404905316034794	14	0.38087402903705186	0.4416788700848298	0.08680591492937145
Si	1.717990749839806	16.05008836427293	5.7997232099741955	14	0.18542580169429132	0.06481396557348487	-0.10380477775353049
Si	6.043170454467976	1.8656032217058636	13.545968026061264	14	0.020574756103420973	0.03510278671491769	0.24948926162482496
Si	13.703715164627177	1.2311310309879595	2.764341689605665	14	-0.11792040307167546	-0.05891842107438532	-0.05148201315692103
Si	1.6437333300028871	6.449997599513113	11.423266142292547	14	0.16896275721885118	0.1501666917759086	-0.034006210295874535
Si	4.823144342538328	15.928333283331826	8.880514527583408	14	0.1148757001515561	-0.14830084064507715	-0.09194812556966761
Si	1.4979553967258572	9.536636922805037	9.37578034067397	14	-0.05483370605226607	-0.1608367788545232	0.005916627562724759
Si	7.39575025805862	4.483466608158001	9.057131915516784	14	0.05733719130249425	0.07496700337221761	-0.20274862378878897
Si	11.07595222382143	1.1777704627143255	15.161911739026026	14	-0.12141067854377645	0.042336334422622295	0.03384140244485305
Si	0.49767654249996757	5.560267908204375	0.34502902383857287	14	-0.01690501747997362	0.0700183969625286	0.11273911163051305
Si	1.9331036451692964	3.577464493335759	4.903693501218482	14	0.14836357561488878	0.015225057263788864	-0.12137673995355051
Si	15.174740263383235	2.1517862744319496	14.905602855760073	14	-0.10732282116308911	0.009828821417862076	0.003219023860825395
Si	11.162940480491413	7.393029908869295	7.739131839752714	14	-0.08823673504003386	-0.036340516816036984	-0.009177560440268568
Si	4.136664307398085	9.311917535694374	4.207135093883825	14	-0.10191372979056157	0.31906285736696793	0.33366390736955687
Si	7.792480817981111	1.463981662693131	7.595198379389202	14	0.038282986885408855	0.16840354181171896	-0.06929000282533067
Si	6.749444631153188	8.851711609447374	0.8771942295239631	14	0.1234498221731859	0.08463564492863446	-0.07403754879898408
Si	9.419984773209945	11.35046741243481	5.1317938700970105	14	-0.0790591745997653	0.03150478192990247	0.12871518875831717
Si	16.49741443881953	3.6348285943785887	1.5782545415730307	14	0.04766186487224501	-0.020138182420059828	-0.1342201823592862
Si	16.113578632084177	7.411222968450736	12.018876911328979	14	-0.03685396654847055	-0.08363342807484074	0.11796745429903416
Si	1.6648768839576567	4.700962085644181	9.919176300194536	14	-0.13036455282119216	-0.19616093773750562	-0.20899486705355674
Si	8.386412686178849	6.070349110550007	10.393282002122842	14	0.0215597465515697	0.09094333761055375	-0.05048750961908775
Si	13.769655899145786	14.683994567935317	13.33142469866916	14	0.05006867656243563	0.05531064608915354	-0.4656896513380967
Si	3.288403797949267	10.503094369307037	0.577364726391048	14	-0.11626641101922419	-0.04249317184715133	-0.16979810933736728
Si	3.0296825295531575	2.465267195133938	15.429108641932274	14	-0.046113288137919824	-0.04032752983599061	-0.05695589638351629
Si	7.64320600248384	14.290341992883768	3.389300108904297	14	-0.129632816247078	0.18468300936730056	0.1631137497260463
Si	14.54393383840189	1.4757025098697805	6.491918793137294	14	-0.037450720093276914	-0.08634877240344913	0.10021191517915556
Si	14.356913557007449	15.640924997252059	7.053365420254955	14	-0.11435325155050201	-0.2609875017270592	-0.04996326124430956
Si	11.251024824296715	9.044886204862948	12.781046564753352	14	0.15646564269973942	-0.05513863914323563	0.1016450492846061
Si	4.210789269575146	11.436578137108237	12.345924807841882	14	-0.038838859855624866	-0.008126749695924047	0.05937299249498751
Si	10.159093548053109	14.883528786744806	7.931945488045178	14	-0.16841614022778767	-0.02570154011179624	-0.09527307896968311
Si	2.764835094388635	0.5905873122863329	9.650432954109451	14	0.13142564798681725	0.23785038206157863	-0.15351349957114538
Si	1.5835197335523703	1.9664167466234828	6.640117390148221	14	-0.06676363473775315	-0.1361698515235545	0.09879266504243382
Si	15.804786712541148	7.023395218991425	15.672964849450864	14	-0.024785969507291512	-0.002897635695806885	0.04765877954586084
Si	15.242691042890183	9.372164246559855	2.3628459653697975	14	-0.08703988551350493	0.007183154043429703	-0.16409796884259897
Si	4.205472750252612	9.0535373457724	6.662938189220937	14	-0.09816788644963782	0.0366829880446807	-0.29226268395187244
Si	16.63847687940563	0.3008212798610989	14.572127451302581	14	0.09888188239704294	0.0670978784293724	0.04349513159041304
Si	4.593452826020759	14.09688095777875	7.362409009351714	14	0.09013446787683516	-0.11919489997887285	0.14859934597274638
Si	13.158155178088686	14.162614727203831	5.64826781025152	14	-0.12070516724392784	0.017105306584413157	-0.11013483905173505
Si	6.350854696830446	9.603074373548113	7.296277866947059	14	0.3196035608157951	0.05625758417856407	0.16428540242043776
Si	7.967233864351991	6.912185423495732	1.4949039033868876	14	0.03480119606086433	-0.1385136711334015	0.15437841940084318
Si	12.830438370393502	5.455262098352263	13.969403705931795	14	0.1773563876470066	0.14507230369456722	-0.13456445336165404
Si	6.82856490282763	13.501684118929372	6.951293547568689	14	-0.09493292173582751	-0.09246903150752961	-0.045609351495170807
Si	13.255776473403737	1.6074283411566672	10.24785011448219	14	-0.3246444699064774	-0.23553767282610544	0.1356036941320579
Si	10.874798710120183	11.198425887567264	7.046381590138963	14	-0.03238615683364923	-0.24652580563282225	0.17975060092112846
Si	16.045242069642892	15.091283659069205	12.997298595957616	14	0.1138896812612793	-0.07184208196610964	0.09541371843069521
Si	16.60227288952505	15.355263496561662	0.24456651171957616	14	-0.07093885266714162	-0.1249657458699452	-0.01670344282287401
Si	5.354913830964893	0.7114151896084356	1.348276585366021	14	0.20605943610954366	-0.03506113480873129	0.11225265850394102
Si	11.357068771057964	12.160772179451433	10.567652577000883	14	0.27267446095979225	0.36844453458786003	0.05707005345973086
Si	6.224008274588564	8.625175896675913	14.965549881170128	14	0.3133966554624256	-0.09664836320543033	0.16100981424256913
Si	5.942795695548635	16.020214194812798	13.004623504547743	14	-0.03438262011474422	-0.033893852993384065	-0.14101149995192536
Si	1.8563841685797744	2.3262015537701926	1.3506293645492415	14	-0.3187638378182347	-0.2774127509542932	0.09337303213809367
Si	3.657614623315593	15.507208989625811	1.398175041555127	14	-0.07859174765256238	-0.10049627942756395	0.07241929511048288
Si	5.093371214413818	4.971684018023389	12.679367097884413	14	0.4667060092711513	-0.03496934634880201	0.0790733156790261
Si	11.802609978637978	4.993431910051258	16.06913908720195	14	-0.13217358252444833	-0.025966878180835522	0.08269651729617879
Si	5.467675036801668	1.1805934665900406	7.32816373711628	14	-0.10024328266406136	-0.04448886379665027	0.19234336055814974
Si	1.1655413092679723	15.328684211390486	9.38549776574527	14	-0.001412051041825325	0.17463461555509782	-0.006696700916857687
Si	15.762930092026146	1.882744898612185	10.247964359213817	14	0.39586125905872704	0.03662642372763744	-0.1127108294719914
Si	16.185243193229383	13.8886128120224	3.3467530528372875	14	-0.021450217464931393	0.08217021203714447	0.17284769735759492
Si	5.7938089754615545	10.818108487421878	13.998897059619837	14	-0.24269305893207752	0.052586560002456643	0.09029259085402427
Si	2.925597300437056	13.44417265873995	12.356519764909743	14	0.05073510706141802	0.047749282453130044	0.16218429515281274
Si	0.9410785588732835	10.611313933131443	6.130251431499858	14	-0.03874655717463155	-0.08470994987238674	-0.06790417705777083
Si	13.168506744206557	13.051387681360467	9.278316338829999	14	-0.3949958250079652	-0.01392536352445401	-0.15486821496433142
Si	15.081350990300633	11.623639811521384	8.892998662024988	14	0.010579584171345316	0.14018874624947797	0.14756807562883498
Si	10.510876256823671	5.444759861646303	11.02164127183832	14	-0.13977685517719024	-0.032881094607777744	-0.010816897192394983
Si	1.3749386565746076	11.794250244580216	0.9851025178477051	14	0.009858389129043778	-0.01719658082327841	-0.08865042588604569
Si	1.6950921318919232	12.641681237934177	3.09972282864436	14	0.16714935663655073	-0.21208919230635495	-0.11677574698314552
Si	14.146966510412403	15.229446932625173	9.38046768611218	14	-0.2513682253927892	0.04175526462026884	0.05889271002118384
Si	5.210902551726214	6.450947983222591	15.60813510355431	14	0.1423541311501067	0.3223659563717622	0.055745934219854604
Si	12.809697156580551	4.445987713301294	1.5764696746064497	14	0.01853021315283922	0.022386614022529325	0.06041403303911545
Si	16.14130533173387	12.376097007036696	6.868674737953259	14	0.0568309406649571	-0.1397989666829435	-0.2339916671971004
Si	13.963368603804533	7.809821181377219	1.011849030814451	14	0.0032398498139185944	-0.16403549098331938	0.1534479363854816
Si	11.455572565531815	9.273224997529221	2.6184064628575547	14	0.14880117774037796	-0.10524922472238966	-0.18825504598858228
Si	10.285045881090953	16.35928427967853	9.725352662245657	14	-0.10840731338712756	0.0551815766020821	0.13263895258739514
Si	3.9086036758175142	14.144007737435334	15.733628801944896	14	0.020920312658448872	-0.07061129384935476	-0.06487772898542454
Si	3.937688066480747	6.898855215751812	1.391399832253411	14	-0.0113172342876958	0.1621853235949408	0.1731356611534515
Si	0.900720365635421	13.241429653120411	13.49882965635944	14	0.0007301939109220544	-0.06629286535363403	0.022656322970612857
Si	14.141900004922851	10.809548411153582	3.9652326368481345	14	-0.18099501589608014	0.20853823874869842	0.14589017229690632
Si	14.053070586780848	12.042330195727516	0.5058541472754261	14	0.1299539473015645	-0.09003213788509326	-0.06752288213879287
Si	8.99003217647442	9.51952836031368	12.301635933547745	14	0.008004107972152985	-0.06408325744149877	-0.2359508494510532
Si	0.4623070358764919	16.0501661831481	3.838828292046027	14	0.030711595938636788	0.017180125749229464	-0.046225645440410294
Si	15.23728842608874	5.510371107736018	4.308718528949367	14	-0.11039040692055777	-0.07990455402902999	-0.04853681201269141
Si	2.6926191782342714	10.501066111390468	7.652834018634739	14	0.004730576678540451	-0.014815480186289273	0.023157174286977705
Si	12.40025066131173	9.393504831283664	7.5018024834236074	14	-0.04133643156361671	0.21280087425897196	0.09735541716847104
Si	7.480193671938588	15.873052078990257	1.636274308032156	14	0.10391816349814902	-0.20714778499156236	-0.09040494815651474
Si	11.635113956306547	9.864761037804284	14.981827271845878	14	-0.17125412628016715	-0.05949100622918228	0.06551510599428924
Si	6.504546975283968	4.45980470294519	15.981114349343583	14	0.14636685522326176	-0.056074007258705504	-0.036255413229940074
Si	5.36947423922474	0.3170225073824316	5.18267582441056	14	0.1216752452812197	-0.02694466953408784	0.022804932858117414
Si	9.305292996980747	9.81172664651805	3.3429432393956335	14	0.08090342844590752	0.3290534013094673	0.0035720366212817264
Si	6.217885419261647	9.657756206978828	9.63130772374676	14	-0.7208780250155619	0.200109127067125	-0.4412896047393594
Si	14.404288694776268	2.72831155040365	0.991175701552176	14	0.0045588268431545585	0.03224526026210512	-0.12649503931436928
Si	4.6398709571971075	9.069940571225013	1.9070674364035372	14	-0.07319191225918738	-0.219469293017308	0.004368050828399571
Si	8.40095984867271	13.478085131104992	8.701161888973973	14	-0.14873124367566995	-0.053563580024112906	-0.017324107647157756
Si	3.7168662460113935	13.988043810115254	3.204397494346829	14	-0.013602175585711397	-0.03157008800503423	0.08656037437129732
Si	2.945149706752786	8.221377064879272	10.662008791000444	14	0.1839597574407429	-0.26849127260391137	0.05410916857304834
Si	2.8041617736003563	9.532126739486886	12.561541042278833	14	0.014718549515719694	-0.05144241813499075	-0.11417353128862366
Si	1.8419231035648211	4.437606454873804	14.79698923039759	14	0.07870770450250106	-0.06549762247811225	0.021305721345939072
Si	7.77332081748271	7.846250349279556	13.404620801506471	14	-0.060657773823465495	-0.1195761948978508	0.26365913726522505
Si	6.624830120479906	5.01791174131369	1.9329960233206622	14	0.09601330019135375	-0.038069328033304546	-0.07918001654981224
Si	13.735261612043011	4.945457401371583	6.008633775380854	14	0.12804798692773875	0.17638039606747835	-0.09550782088541263
Si	9.380273966784637	6.383715786520368	14.259388293495793	14	0.008636342770377397	0.1225332231265531	0.07660351190849188
Si	15.944231513956234	10.670507605601058	0.592243033034553	14	0.06019163242892265	0.04071370985507684	0.014310257990880178
Si	5.189657998805803	7.581301915149391	10.178202221208316	14	0.11290880458164282	0.17580575402842527	0.04848616123788449
Si	0.7749567847628746	3.1285886641688276	11.478835442044307	14	-0.014696438009966421	-0.02451960299612417	0.02068042853207906
Si	6.564195970959342	6.647703902616565	11.822630953925456	14	-0.18799664990390738	-0.14644758793031443	-0.16426817601479277
Si	8.046973375586266	11.211287526339436	13.572790702182427	14	0.03581035489902245	-0.13638479592831887	0.11525236708095779
Si	11.729466858864612	5.519682881224007	9.024058893571091	14	0.06263752491997951	-0.045158122511484815	0.00753590969335402
Si	3.547572110947395	3.259203506833659	2.933488465523072	14	-0.10123135843859427	-0.13693167002991438	0.03742526615060745
Si	8.514800584437324	7.668892854171726	3.610368631765135	14	-0.08146367229516777	-0.3315610003282078	0.08279653329313254
Si	8.339141858817166	2.635720334721691	12.874573262658053	14	-0.029515003522639874	0.1208938863744267	0.18237389967927556
Si	3.788202974448452	15.079905546087438	5.334942527299864	14	0.08056738498056416	0.020627206651951994	-0.12427668964414552
Si	14.024757761986285	11.633050928254267	12.693738753978963	14	0.22888699469447843	-0.34123889786377715	0.20466461147336337
Si	5.594016464215343	5.959386017445799	8.486929837082537	14	-0.25246300203810823	0.15866342352740198	-0.11320859546197208
Si	7.132631395355239	6.691039081759728	5.206602644943087	14	0.18374301326225442	-0.001968952454169399	-0.058826375503924014
Si	8.685863029260421	3.594288271858422	7.308516954717902	14	-0.046985921283578085	0.07699200592236624	0.07639011016691957
Si	0.4599989611534732	11.550546363370463	10.241175904146116	14	-0.053485675532912426	0.0773419333564384	-0.05336766179871763
Si	15.148526892497415	5.9542499716848205	13.678735305698781	14	0.0015704311295464469	-0.04226125814727397	-0.010049679364862797
Si	0.7591711431493451	8.501905831250186	3.051802958749377	14	-0.09248342969732246	0.07088331679222641	-0.11186210760581053
Si	12.682556016045485	2.8540536069064695	6.210350234136497	14	-0.0754670833569864	0.0015953708511518832	-0.12159091302671884
Si	6.326464274488417	15.682559751186798	10.686016741849635	14	0.0033390944792763104	0.22565408686492422	-0.06079352818436931
Si	8.249424974354119	10.669987709286117	1.290326359178321	14	0.15907788570500986	0.1810814050348371	0.01601670059186246
Si	9.382583697228405	0.5566980200117659	2.2366866672384265	14	0.02353127011105925	0.025850664220364833	-0.10554798716059087
Si	16.058466311258925	8.719525487792483	6.322543527756633	14	-0.14901175126609814	0.08780504645678101	0.03473588998573256
Si	0.5899564826812611	14.539696849007196	7.222919503476424	14	-0.04422506839080308	0.16789780539524582	0.21046451085455342
Si	2.667028358349783	1.7205786413692739	11.74918980441741	14	0.00305832977831614	-0.08701905956041174	0.030818296809422933
Si	7.236678542894132	7.471300795799899	7.355198345493216	14	0.03562446398437574	0.03411059717187254	0.14908837020463853
Si	16.310947168154993	11.487754809714968	12.446269763787756	14	-0.06714441543566708	0.026675474807068333	0.007034029934861114
Si	5.364967367348084	2.3784329204935406	15.798034683329906	14	0.21983593263596113	0.011516494950007275	-0.020313274692361914
Si	15.429857027710469	1.4327067534800035	4.300188255654537	14	0.0252024885691555	0.006501811133590461	-0.14706850986513018
Si	11.659299069275798	8.348144012525239	0.4825780249969494	14	-0.10136042792566571	-0.07337883161596213	-0.013927677519242143
Si	16.099488448516826	2.4173721610501784	7.9247679386016445	14	0.07768260481135801	0.006411565336853265	0.030790528871965334
Si	6.952066769158107	2.82019411760537	10.701398387600598	14	0.008778267784049571	0.18184116665694086	0.2602053714886701
Si	11.951340062009086	1.985467469552502	4.180653496236794	14	-0.06114885493961378	0.11160216885794355	0.0893363967854612
Si	1.7275608157645175	7.309394486714458	1.262705625656515	14	-0.2183331215763346	0.034628932004414394	0.07439338977529258
Si	13.128521088137045	11.672450459178908	14.84188078704408	14	0.03902500788080359	0.15504767811567774	0.07657882929741844
Si	12.585731122410326	11.330173243223879	2.2498380571415377	14	-0.2602189983468669	0.05469306659125397	-0.04224917395226928
Si	3.848664929011202	15.217015781247536	13.662297310110452	14	0.05151903707353117	0.05071350977672877	0.0379297170144205
Si	7.424852861650083	3.298377859736544	3.2946342751248183	14	-0.06230662366527645	0.029828678371697937	-0.11472143383234722
Si	11.92398921096924	13.613826085206313	14.401629607254627	14	-0.36194915121756993	-0.28724542903013545	0.20739281132857249
Si	8.206689166121812	14.347904780416384	16.221438904506222	14	0.15420718378652135	0.05365202604712601	-0.04067668593846672
Si	10.48903730015465	12.350925084501508	1.7064255404134892	14	0.11361097344457526	0.0349379788638962	0.1735868901371375
Si	2.5288270032166076	8.79610919528065	15.748960776073414	14	0.26694989496448257	0.12600241553502892	0.23891970476422822
Si	14.885255703485198	7.601170564128031	10.024875857040152	14	0.04028870614565637	0.12215758463927949	-0.15496617407702906
Si	9.265621927853395	2.823742327168806	1.8917189050675376	14	0.016786746635246808	-0.15046545421410984	0.001018414817310654
Si	16.41038478913084	3.546711136158321	3.8708929800560554	14	-0.07522848478327666	0.008238335666818477	0.16187319140907486
Si	3.5484446757817074	2.4516704163495557	7.867961815450965	14	0.14167278824026744	0.3062407551353895	-0.7874354571066392
Si	10.23512590053212	14.037425681430916	0.05495171591267358	14	0.014792340238407944	0.06998908636187891	-0.04910142674099592
Si	13.080859510678783	1.5304538835719192	13.954836674788956	14	0.020507907365097125	0.06175280757931657	0.19714644240671836
Si	4.019435966982613	4.364875609566744	9.78367211416021	14	0.2299141512698776	-0.019448611973196115	0.0812957791177621
Si	7.166643210965174	13.545825634076918	10.681898964348813	14	-0.03835060695532875	-0.008371776032934162	0.0868136282453319
Si	7.22906222745232	11.378096424560358	6.0205963577867445	14	-0.11205211228896947	-0.10306095698441164	-0.137359501955187
Si	11.8589127626812	13.310984826032385	7.335308172144849	14	0.1523032802969517	-0.005137325540187877	0.25087251628706464
Si	1.423507569002893	0.06863459217596365	1.7681955143673327	14	-0.062441863805116245	0.2026074701067129	-0.047790934359316445
Si	9.792339812277142	13.265273687615526	3.718591507031039	14	-0.15924963554039576	-0.07139753785625604	-0.11331683899595033
Si	3.82110545715708	7.845806616119033	14.010909313648174	14	-0.07327033097145189	-0.13142539087628524	-0.32357437587223176
Si	3.568563338593328	12.453184053632324	8.627705837979194	14	0.21484695987274577	0.14328949926557655	0.019352966855286605
Si	13.989966101903939	5.429177873684805	9.610278414523618	14	-0.0793525377167942	-0.31902994721887007	0.052097021549500445
Si	4.848352690929977	6.979333178439794	4.7206303924122865	14	0.05747551676871822	-0.20320396654098724	-0.05139408135497197
Si	5.291175205041416	12.010705929436513	10.261604186737653	14	0.30423426454354596	-0.2686342260597116	-0.2905742390881312
Si	9.168788755614498	16.313952301313012	6.312534695833643	14	-0.038675337557263455	-0.0765556893495371	0.11229148219427527
Si	11.080541881735495	16.098173806242738	0.7550103169090682	14	-0.012787906530820502	-0.19603701046107447	0.044503004875911086
Si	15.232672276642704	4.635051154099039	7.806143825595423	14	0.020508164475629136	0.09979205368037537	0.03730339575843243
Si	7.93482809786783	0.658337749582747	9.795050227141976	14	-0.19581486696141367	-0.34274248025499976	-0.27557081110293913
Si	4.567047391528147	5.411438481588376	2.9971145024356702	14	0.02356932246979744	0.14887573979466226	0.06557989784835697
Si	13.766822960945582	9.641488750627566	9.443409910355763	14	-0.0265273791406278	-0.0500367948564658	-0.20046213982758132
Si	9.088747903204046	7.731858258505785	8.865280240979036	14	-0.0792085558188659	0.12112091497419578	0.2504045751187977
Si	16.379187698792883	3.8713880405597734	13.617829617975508	14	-0.13902172154466275	0.03356012352282885	0.007222749065359983
Si	8.410923976135498	13.306009385183984	12.671472621356898	14	-0.13952308708209163	0.1123701580170718	0.013225508656309703
Si	3.829465191214843	6.697996420343748	6.96166332661479	14	-0.02856883676482538	0.03312303561840367	0.23040060439644958
Si	11.039559481775555	3.5452044302774404	7.845776813145565	14	-0.03799990818966054	0.08734276172021839	-0.07144458908361476
Si	8.532164127923906	9.731670892620864	10.024925528662598	14	-0.004564997495922914	-0.19691375737524494	0.03015340897363264
Si	10.237985330264294	5.1792004665600455	4.5390640551624815	14	-0.0180141923150855	-0.08699052029135809	0.10757453237393161
Si	4.790750166099404	2.8628752870529857	11.727378995001109	14	-0.10368959223518784	-0.032356846232999545	-0.393551378039106
Si	11.664688440311254	14.780276385165056	3.959616432070172	14	0.04367768006814355	0.06880792057780288	-0.10916578945657124
Si	5.526194830926756	11.20773103817226	4.449070665334479	14	-0.285309643834596	0.30302481660094827	0.5461907018014011
H	4.449065698172236	11.911395798958278	5.331589692784719	1	0.24601081323719665	-0.07740595387891008	-0.16055241460611477
H	8.193261270853748	1.671564340059717	11.033279332977557	1	0.2421484988252702	0.009773542653478894	-0.05851115799167387
H	3.0121302339012774	6.996921899948135	8.296313330222961	1	0.12866685197829839	-0.012590702752765142	-0.10472729034239961
H	10.008884906053844	12.234253066257438	15.433650283944642	1	-0.09086517600882124	-0.1502289125246562	-0.20730436530555937
H	5.854309011601513	4.5226277152949015	13.936688319667715	1	-0.19752388066771612	0.005148124182532498	-0.09833423696385142
H	5.0595282823202	7.840652357429824	13.017822910352551	1	-0.22164367678655722	0.10316894340785786	0.17348533147699163
H	9.757715379990366	6.499889432819225	3.717728876521216	1	0.015066934286599758	0.4420187702081534	-0.1648518169224664
H	13.451459485752867	0.4524223830096185	9.083419793836274	1	-0.08838380226434633	0.01673069653926758	0.1345204874606795
H	13.753484474597922	13.173048386218925	12.335457341271637	1	-0.052919003920351794	0.45916032937758067	-0.18147761236467191
H	3.990979094482956	3.6761951215521176	6.973528221496535	1	-0.5079239128795091	-0.03880440704433488	0.15537215160708043
H	4.643430756805781	3.202751707923098	8.846057323092204	1	0.041279867246573454	-0.07347730494972382	0.5779001437147873
H	6.32128186854649	11.387875111299344	9.193270242597679	1	0.327520251207063	0.40809894905103583	-0.1029162037548873
H	4.757403950230253	10.386927345891175	9.762318283670417	1	-0.21568951108615836	-0.5914069312931212	0.10394798831986272
H	10.283900122333185	8.288592704374011	9.833691437963937	1	0.08230905172443247	0.017213807228923406	-0.06617022362986298
H	12.435974492175324	11.51695178938908	9.18807790233126	1	0.05503476648830165	-0.23954216936223607	-0.29608977422091287
H	15.81548929145764	15.253382031761442	6.484333936389698	1	0.12117053730687463	0.07762964004176295	0.07154691907535665
H	4.14459355406131	3.383233548082819	1.4054701471717843	1	0.2388438571572839	0.08848690358768427	0.19188210426371516
