230
config_type=amorph dft_energy=-23324.73947948312 dft_virial="33.016621745171896 3.1833985146841397 16.358456235126262 3.1833985146841397 46.01347395079709 0.5427167951242681 16.35845623512626 0.5427167951242681 36.771087932337544" pbc="T T T" Lattice="16.453382954800002 0.0 0.0 -0.066883001711262 16.380445108161375 0.0 0.32791592228916405 0.008802559880818002 16.36703560105321" Properties=species:S:1:pos:R:3:Z:I:1:dft_force:R:3
Si	8.466492952613029	4.121732027992062	14.665045017383244	14	-0.054634702500486604	0.15156640151219725	-0.09967995348841692
Si	7.390359440454335	14.971132236506275	14.018874599275975	14	-0.09611074508298735	-0.2570436832764841	0.1180394452479983
Si	12.421692065028084	3.532506768291355	12.859319144859855	14	-0.09681471371964388	-0.3454801931998935	0.06848293286533617
Si	10.90533183853076	3.7818084268224847	2.9685884569134267	14	-0.002390356616141669	0.11360865944978712	-0.11775328122586581
Si	1.8695271556072186	13.3605122243992	10.245324125358504	14	0.053805521034738846	-0.07442938524977466	0.004445441098536028
Si	1.3644280429544042	13.623911141446	15.792669391498984	14	0.11028267760764357	-0.09104515338123162	0.181270381275868
Si	7.048259056719838	15.247236455870775	5.475264640753799	14	-0.0014048519469289102	-0.06654174834862438	-0.09736210204230342
Si	1.8029584135103933	5.819982757716403	6.117458276200892	14	-0.02663176601662582	-0.25294688405936006	-0.09171646898032228
Si	15.649156404014038	15.936269581913592	10.821246824940255	14	-0.27376743783138724	0.04430605820838774	0.11824359101041806
Si	5.6043019419151126	12.973469425123666	3.012908934578771	14	0.05327073112814804	0.05892613439034577	-0.2636802203288503
Si	0.5860711461882716	5.757384216926571	8.112518162400054	14	0.05144756034563104	0.07138905320869954	0.10753982245210959
Si	0.3876153770023604	9.42398112028466	13.138065777526892	14	-0.11167724513329189	-0.08946572338306463	0.026680874128240644
Si	10.37153638066648	3.2623586735564944	11.726228956926528	14	0.0066535063474792	-0.18886234106520125	0.01870119165662907
Si	14.598166951686869	12.82405131849624	5.03217668311933	14	0.06520374514001931	-0.07361794441073592	-0.01228139878275133
Si	13.574792857311037	6.341405271598675	2.7049970352860533	14	0.09329049965731692	-0.16351175682960523	-0.13985244567360258
Si	4.860330970186216	12.144952745081529	15.9725591633587	14	0.06249688545896741	-0.07424529410885206	-0.12346242058925463
Si	1.6322858267819573	10.503708051280682	4.048272609113766	14	-0.11133117435719996	0.14344299425318938	-0.07353206949304297
Si	0.18812304469029678	7.178209520635144	5.007282714708716	14	0.18425389188936783	-0.23467095322268353	-0.017442378491884566
Si	5.3338988197444515	1.7829807159266753	3.4478804384016373	14	0.049225096906895055	0.056051638642420215	-0.15958876433212327
Si	11.601076299480843	6.351403992420306	5.796943085564798	14	-0.20961450343571245	0.11701100311993907	0.20013998033096678
Si	13.536836548172609	9.258479831818919	5.65612022619296	14	0.06594242369849787	-0.0739424179021386	-0.25551464694259196
Si	11.009068772722479	6.722143134525929	12.898206715473524	14	-0.03097127757597174	-0.06740538262566212	0.02409717039202384
Si	8.768723498771456	0.451734210377216	13.448304185169421	14	0.42426040287242267	-0.2788955073924226	-0.5147954489581369
Si	7.931711937109756	4.44659255706652	5.286667738634402	14	0.04801693451695747	-0.19625606863435108	-0.16328601378249624
Si	14.544897479032409	14.188658703324853	1.409296418272144	14	-0.04780893209655748	0.10832915178539507	0.014039006379604556
Si	12.786152596198153	0.24190257221635605	12.335867928859257	14	-0.34416430149704164	-0.07702697295472025	-0.15352841198200223
Si	10.498533462341397	15.929181464536665	12.139824225614518	14	-0.05901972262399915	0.23590945465539886	-0.11298105264113897
Si	13.96397624170899	3.50208446320793	11.084902414761153	14	0.10815740195000917	0.3225212511330991	0.18364351148636465
Si	16.293559728791962	7.945907915923157	8.597310509810054	14	0.2446352718909174	-0.028201682925108232	0.034301373186627536
Si	10.417725962635489	13.629704377584387	12.492189874974514	14	0.08717538276387674	0.14720503555763004	-0.14088268757538594
Si	12.437495539356167	7.789954525586085	4.155999488672024	14	-0.005588554523873864	-0.19763135287009828	-0.05692401467754645
Si	10.15942265828979	3.184509492105858	15.977992070410375	14	-0.027285855210071486	-0.3524962253975135	-0.03353724068547953
Si	9.735984975918237	6.70978828926517	0.12028245609106542	14	0.11534569820407917	0.00022959970508922345	-0.1795598249063735
Si	16.668586622495603	9.086061541158978	15.409614892251694	14	0.04877078259682488	0.004032264473588233	0.007415324853839075
Si	9.454533407093429	11.562784341330136	9.194854599932706	14	-0.04279424828014067	-0.10314014702827222	-0.06693127080462681
Si	2.872556641959441	6.014516040405891	13.368989007297511	14	-0.050742563266846445	0.10392896214049363	-0.12588825845881438
Si	10.936280651868739	2.0821147354130076	9.745671082463728	14	-0.20172943763988233	0.06187904885053583	0.05742846554135951
Si	12.732486597014482	15.502936835033026	2.2195992033833165	14	-0.0611198014494961	-0.011608797631000593	0.05471414965487918
Si	2.263100302577512	0.8235132062855813	14.038613722806849	14	0.009457553809632695	0.027433693765980004	0.04777885016431175
Si	6.45032337608286	12.477429545125764	0.8650234461422462	14	-0.1612597256796875	0.4861980729242578	-0.09224405979201666
Si	10.219581162387424	0.3403991039369708	4.460313033112527	14	-0.16036446680721197	0.1253128450881652	0.1738630268485214
Si	12.337873596241446	10.426882270249834	11.416990914967654	14	-0.11698632050886565	-0.0070237455135805215	-0.03515986525302498
Si	9.295937603453815	10.837302036027548	15.272016895938998	14	-0.12915124822061427	0.3161155993384822	-0.0631512317629451
Si	1.450515433250509	16.09967635472919	5.906782579494451	14	0.03386582794539445	-0.1593473375425614	-0.018226565614529733
Si	5.958686421363663	1.8092600591820818	13.54359230721385	14	-0.0025302247455577243	0.03872213167409015	0.04861857316187211
Si	13.528038924306676	1.280507563193447	2.8015948466136837	14	-0.13242760773007897	-0.23470257781812134	0.042986566958087745
Si	1.546877961201886	6.5507038201518	11.52254101196099	14	-0.11934839496648568	0.18879497810581336	0.15031684432660528
Si	4.553139729066919	15.878031187606782	8.889346539889685	14	-0.03557535587276091	-0.0723761005411044	-0.13127883787303682
Si	1.2931026278453464	9.58353122013565	9.489722257218858	14	-0.008500588409473578	-0.075407947934623	-0.012611528705858343
Si	7.167495077654978	4.45523058311779	9.135114011762123	14	0.07075347597355894	0.08735844546267128	-0.1381665719151815
Si	11.170163845232926	1.0540283921589202	15.407192954280749	14	0.22389287972062277	0.07024259734644552	0.24289669047343326
Si	0.520417212183733	5.619812546026603	0.2959354818399193	14	0.06609926112302689	-0.133504129527625	0.20057706823539195
Si	2.016439412010628	3.66315650098224	5.117857674856451	14	-0.4963891630817288	-0.00452411692133256	-0.13806989835514394
Si	15.110176485180698	2.241901763978548	15.071308658626576	14	-0.09114491226765337	0.06884391605228497	-0.10057572658195651
Si	10.95852891630022	7.3940153821468915	7.798990723504862	14	-0.048641713109753446	0.020153866162512732	-0.0842906025946706
Si	3.8412380460552225	9.764549694066066	4.367494563849614	14	-0.20507084611394677	0.0760607515754086	0.4937028722432381
Si	7.6184625603865	1.4133521771705022	7.681640260256341	14	0.07691101610478157	0.11225265850394102	0.06731050883934865
Si	5.853355154363625	8.117643391190473	0.6792795606272135	14	-0.07458056624259934	-0.10301133465173277	-0.16721646248540661
Si	9.35415296302449	11.385194752407502	5.369173227461248	14	0.014642701908775323	-0.23065385827048418	0.06455865481519417
Si	16.437339261080776	3.6452914177699185	1.4701969699410407	14	-0.15520374420861072	0.17417361637119527	0.531728234375568
Si	15.897434662125377	7.4766656607437385	12.115830257251533	14	0.07292965951653227	-0.020016569138416825	0.055028852946065306
Si	1.5722079442608006	4.787067346565083	10.051978776918354	14	-0.20167750131241532	0.13261144176046957	-0.05620230541418089
Si	8.22285125781835	6.103635789180565	10.341561607599424	14	-0.13391987725789292	-0.004345682212114283	0.007824901931338665
Si	13.486490841669216	14.701778840168132	13.38864586391361	14	0.04301227801128923	0.08874041457225088	-0.149652727822411
Si	3.052933433954618	10.64154626698452	0.6569473839426635	14	-0.01235801772129174	-0.32026587754626523	0.2048934398468565
Si	3.0507007098876513	2.498013477714669	15.564429708488294	14	0.0400843032727046	0.06889225283230375	0.013958016562019893
Si	7.48691940900117	14.2925667526993	3.4330839111103857	14	-0.1590159220667943	0.17095022163132562	0.24330395355614476
Si	14.371913191998823	1.448448888351386	6.588271829452495	14	-0.06867885109073145	-0.2937932629489566	0.10041348983625517
Si	14.263567665241464	15.624236110190697	7.251366197267071	14	-0.013048873720815531	-0.07261109956736593	-0.05815814523121754
Si	11.038227457994974	9.053597371250861	12.824898667718411	14	0.01853124159496728	0.01179803098256349	0.021190021606532407
Si	4.016983210748624	11.514937903697577	12.456313273441573	14	-0.06505076437347052	0.04891990670539347	0.013738444167679246
Si	9.813995400521831	14.905772818056628	8.071404449072599	14	-0.07825698973987909	-0.0019990343864151315	0.07707068174516278
Si	2.7197244583688946	0.5924468320832565	9.796834522099974	14	-0.02119053582759644	-0.07980505225314025	-0.0217350959344038
Si	1.5423039207404516	2.011090417212022	6.761632898955745	14	0.03921912633247477	0.11309315283309743	0.0600119121670443
Si	15.628199730144509	7.023804393634119	15.791392608981694	14	0.017242860719041075	0.1027321126139647	0.033159031092885746
Si	15.053613045258688	9.388124262811264	2.412222248311751	14	-0.06183713983381742	0.06149184038932154	-0.14431922694629584
Si	3.985048839771652	9.228896649266186	6.6294200948841535	14	0.06670809886283796	-0.0718986462831529	-0.01834020846968028
Si	16.478510561248573	0.3431583362584908	14.70522582389716	14	0.013244020614614771	0.08354523916235967	0.049664498806108355
Si	4.376297123730432	14.016223959281955	7.417017211517702	14	0.013805292906003094	-0.07040663386587095	0.047600158344561466
Si	12.929556991355598	14.231814281476996	5.844193910734392	14	-0.061376911981510913	0.07376629718770847	-0.007695061112671187
Si	6.154986797382495	9.64659045564822	7.286866016330348	14	0.049790740077327623	-0.04552064836162569	0.055018311414252695
Si	7.730804613863579	6.809059775322956	1.4433335315907387	14	0.10947946430562931	0.04212061868626188	-0.06978905436797139
Si	12.661947653610664	5.528173784321549	14.02730366736372	14	0.1562897790958413	0.05673863798396379	-0.09622644482239402
Si	6.566844588830458	13.396525389010664	6.848640033359022	14	-0.11944841096343947	0.07845984994963877	-0.09512266930845445
Si	13.085526835075626	1.347453087759937	10.275323578499991	14	-0.22097338962959465	-0.7467770260159455	-0.07417741692840014
Si	10.727383565859713	11.264415404151203	7.277489233384407	14	0.013317811337303021	0.13192289975573393	0.105515591233557
Si	15.75220394145995	15.152293854868395	13.092843654475626	14	0.1299919996603027	0.005914313567936627	0.053877511983703004
Si	16.278860276460144	15.418323667849672	0.28393932032757463	14	-0.010601181456034559	-0.06827081667642396	-0.025510764097041255
Si	5.3040671911091035	0.5727389699799972	1.4152311535039401	14	-0.12023825451778894	-0.17625621168051522	0.023549782069364315
Si	11.145174447201175	12.291122953913678	10.714860896092812	14	0.06514358127552784	0.20177366065138888	-0.04296137012595029
Si	5.827804695973115	8.734095709004784	14.770891275269769	14	-0.08161870994597271	-0.03057327047241282	-0.1244636090009203
Si	5.566028082485657	15.98712698862688	12.946768875264615	14	-0.03545091437526574	0.000591611334166073	-0.04471563528588733
Si	1.9296428809091715	2.340564474867006	1.4256346275462604	14	-0.302099990017291	-0.07088588789754656	-0.09622104550122171
Si	3.4280080424688295	15.422752918541102	1.485171193768204	14	-0.023124778359943837	-0.050493937382388124	0.10174866482900806
Si	4.947201541510969	5.0968236700870335	12.889925727832374	14	-0.08113457081418882	0.1093663356715428	0.0959222830630205
Si	11.65462712498383	4.994222019319197	16.131711091342183	14	-0.02010398671930186	-0.03175135093010467	0.12104738136203953
Si	5.2872896765100945	1.2189390041765853	7.404349751980801	14	0.006149312594198161	0.11713775861222236	-0.07194415484731952
Si	0.9675461206719005	15.3479854557179	9.454762109116501	14	-0.06871818900212971	0.0840041814620061	-0.0647504592720772
Si	15.638581814788989	1.9134412347135799	10.31681407429711	14	0.2475820156983391	-0.18002776607464044	-0.10397627047838436
Si	15.867448371690255	13.923114265140743	3.4167818992787695	14	0.11293657251910043	0.08203934277634894	0.22432328275121555
Si	5.618594995687947	10.996368406419668	14.105783013381524	14	-0.03191693011272222	-0.09186739286261496	-0.020244883290845974
Si	2.689154072838876	13.49046762432939	12.456902304551354	14	0.03284947001233991	-0.06886268512112204	-0.011273525497253281
Si	0.8092744486764973	10.753736949338414	6.236414589625801	14	0.05845150834824643	0.16716684015272773	-0.07319988268567984
Si	12.927834322160232	13.286335438024073	9.501277468068015	14	-0.28530193051863556	0.11105606608794412	0.03150940991947873
Si	14.749470616000915	11.783062232328998	9.02995550528311	14	0.14052941770439759	-0.08979688174829972	0.005766475012028111
Si	10.322130162329804	5.483284019605967	11.057996197615168	14	-0.17740575286915342	-0.04726205799496199	0.04947475123348142
Si	1.1432550879228007	11.91609770554833	0.974660563461556	14	-0.0015838008772112167	-0.05588143147022641	-0.1387319579750821
Si	1.4299668032782593	12.678614930543876	3.1202442236227044	14	0.1447244331447512	-0.10995049080028042	-0.15549376488872343
Si	13.706187928249774	15.519358956560211	9.55032993867116	14	0.07122321691554999	0.13701163140537098	-0.13363525589895253
Si	5.155942320381926	5.4218174715634255	15.310136093568678	14	0.14036589540603617	0.16495157580888814	-0.11763912414965126
Si	12.658030103129127	4.495778300071599	1.5901437770198281	14	0.03881726257093562	0.03557072788318465	0.0718780774405917
Si	15.830370673201614	12.495383476606042	6.9914422347003224	14	-0.1184176548405921	0.05879783623487037	-0.10584674959879208
Si	13.776080253703467	7.869845571861412	0.9963016980620045	14	-0.01579969930284196	-0.2246171600893085	0.1854563978476011
Si	11.318672079782951	9.220918403871405	2.635682223574072	14	0.06653043548521573	-0.07059612432796589	-0.0792363237563235
Si	9.913656831755645	0.014197624151696921	9.911600158886294	14	0.16839120050618223	-0.10834175020146379	0.2686766492974941
Si	3.643410796098185	14.184777350285813	15.82352112987753	14	0.01834946444883281	-0.03483796286694244	0.02389816684024438
Si	4.053521238276348	6.5855652479564295	0.9863095585935544	14	-0.3075072816160944	0.023436910545809812	-0.2748462736237213
Si	0.6754376957072677	13.279994304233293	13.581662144694665	14	-0.02229122601515183	-0.005727137100629846	0.04285646902888826
Si	13.877283366920148	10.866106973566518	3.9822468286544495	14	-0.03829172864349736	0.2820839350999382	0.13366559494173028
Si	13.789088298267535	12.039433909515806	0.5309013078025316	14	0.17165881825755847	-0.07521974302518818	-0.08977451313201443
Si	8.780170117293109	9.454097392445126	12.272037029686109	14	-0.036387310932863674	-0.07259233049852884	-0.09566260142568556
Si	0.3127475485431339	16.060537047356313	3.883095452292234	14	-0.05517154929133352	-0.08886999828038633	-0.029450725889636167
Si	14.993123828163661	5.647284759546232	4.382453979632118	14	0.126768090699369	-0.1951103841036931	-0.15310469382524186
Si	2.5148518698306117	10.562127432799997	7.807372076782037	14	0.14282361498156573	-0.15342659621132437	-0.16996728806743303
Si	12.185278341365448	9.422312747253045	7.597283765847082	14	-0.06561615043337106	0.028152060592429376	0.10416473249835123
Si	7.288731829957422	15.806973962639887	1.6096525531893346	14	0.12187399172246716	-0.22757727364439495	0.0478490413395518
Si	11.414644662558299	9.842663774982274	15.026086535575308	14	-0.20089922773200647	-0.02709276520052837	0.1817012985275248
Si	6.665740937756874	3.909160901569228	16.1525641088991	14	-0.08452765850518824	0.10368187891922741	0.06535518324337604
Si	5.228653110335778	0.27348813147468565	5.276405763685494	14	0.08644364618976261	-0.10751668250422826	0.07856089438872059
Si	9.415953514741012	9.557678019498775	3.9039797312767615	14	0.10901615112693863	0.43802121565638724	-0.09676123472898482
Si	6.130390635203366	9.81563744814072	9.60412756491847	14	0.03941118789988983	-0.143974698833396	-0.05153446370545206
Si	14.278591249217492	2.7831621216894216	1.0557033465437191	14	0.20185567891110162	0.019284575453770665	-0.10260561423221341
Si	6.323480956207716	10.093512051511155	1.7972309909038273	14	0.5644067258841182	-0.021043468603283967	0.1489677853651236
Si	8.08399128703302	13.376965607353998	8.643546161251336	14	0.11983022010348143	-0.00429528854783938	0.035620350215863496
Si	3.4703936022986897	13.936940042837662	3.32812284522683	14	-0.08052856129022992	0.03192592898134272	-0.03803333255882247
Si	2.821641648405812	8.316819818549805	10.748593621826744	14	0.08200411863346291	-0.11288463619163343	-0.22565691508077637
Si	2.7060187903675463	9.569433961619978	12.67127836708433	14	0.12407100121853369	0.035479196533787366	-0.028233307520546057
Si	1.8483977212166645	4.4928907313630315	14.837652521947165	14	0.2198367039675572	0.21669429904527215	0.12437747697269534
Si	7.5268040546219	7.844434967226019	13.420593397596946	14	0.0018211138982608844	-0.13220289312509803	0.06635302921812551
Si	6.606335998598569	4.77440811371966	1.920753118098693	14	0.0985995750328907	0.09228956835618327	0.14079629843662897
Si	13.536142215411916	4.9283229299086315	6.044837979853291	14	0.11011632709342999	0.14997000221891732	-0.07171789757914648
Si	9.155198656335049	6.381941471184416	14.334758162610294	14	-0.12097127664456317	0.18073147760076497	0.003292814583513645
Si	15.683794065810481	10.682605684148223	0.6148941824484901	14	0.051754550320856726	0.08070956710476836	-0.02999194355952734
Si	5.069909226249572	7.767393646878463	10.183062878919245	14	-0.07402366483025528	-0.0469915777152824	0.045865690695589566
Si	0.7132015002651247	3.175690478842085	11.57530865643533	14	-0.04662956608620556	0.14226362824283745	0.02175437922430491
Si	6.400928675114255	6.64892887105366	11.780911775176806	14	0.054790768593419595	0.1780385018884419	0.14185893626544616
Si	7.837919427575918	11.214224359447584	13.459268719570499	14	0.10104315352915944	-0.06919667170220928	0.16987215717058754
Si	11.55244503548134	5.516241791002727	9.076618944681218	14	0.08644364618976261	-0.11715678479159147	-0.02132217641998802
Si	3.3869749507178537	3.141895230252926	3.2216711028475693	14	-0.0017092708168344431	0.18312877620127102	0.02353101300052723
Si	8.165290742889278	7.64501009378407	3.588522310560972	14	-0.014951748768257125	-0.2526776893323406	0.26186964796240203
Si	8.23097264764484	2.705485700759811	12.816732853757944	14	-0.14613185619700025	0.350577923718151	0.058531983944767066
Si	3.488480806180901	15.02805106950011	5.449176156740667	14	0.018487532804524764	0.09604132523934336	-0.038863028245634264
Si	13.781727054733556	11.661580324620529	12.769873619102674	14	0.25083626370205053	-0.2105120763029761	0.28008104405554285
Si	5.295017830483963	5.9681454712243776	8.558192591835017	14	-0.07571596635197675	0.2561412253091121	-0.042367187686464074
Si	6.850199814063137	6.57132484500905	5.181002467960382	14	0.10345099366147809	-0.12470555001154625	0.028573978975465677
Si	8.480152551142105	3.5508358369030026	7.404135858002389	14	-0.027881837423281812	0.06841479857435225	0.05587114704894582
Si	0.2667356631100357	11.605658566633753	10.333999632793397	14	-0.060859348480565095	0.04955831215638624	-0.026267954613824866
Si	14.988663316044615	6.0009403541298845	13.77351681663911	14	0.010436630715545082	-0.054749116687233194	0.021838968589337784
Si	0.6894115538507793	8.489065348688719	3.1411449559901867	14	-0.08786880986872067	0.013640485054981603	-0.08058358294408109
Si	12.503870131534127	2.8434604795421725	6.269393750420401	14	0.012921346896936185	-0.09420632737235367	-0.08492180895076695
Si	6.000762657593973	15.578309782348963	10.672830729334777	14	0.14832526614561858	-0.037064025853126646	-0.06380017874575049
Si	8.377889840063135	10.982104968736152	1.1336660563367433	14	-0.39964335498466486	-0.13600941455157725	-0.3198151627836433
Si	9.297798481066003	0.5359985658419287	2.2954772695559673	14	0.05092228352872479	0.046616196338540784	-0.009871758876708549
Si	15.742662624684462	8.756715819891042	6.481935260753918	14	-0.1399725162920535	-0.01029316303868082	0.018915364729797404
Si	16.50870251897063	14.815213398273407	7.3256894187504935	14	0.06026670870427097	0.04169895741375759	0.08010355758080945
Si	2.6230147640371713	1.8056814483894128	11.884367356519997	14	0.07194775439476772	-0.2943663623248176	0.100949051074442
Si	6.950973493984697	7.464704051335598	7.294133475581483	14	0.0014719577957847752	0.14888062489477058	0.11096633451227095
Si	16.057577083762745	11.488747408710125	12.553271413855915	14	-0.0387388438586711	0.07925586415675662	-0.02064803260504519
Si	5.371481637089806	2.018543799690547	15.843553123624998	14	0.1992665758537125	-0.06983353449000997	-0.011875678363231962
Si	15.189203728850899	1.2311260249312057	4.395973724406078	14	0.33969520622956023	0.9731669632234959	-0.2666714442583106
Si	11.433877021894165	8.345754737814117	0.4618678489390773	14	-0.10648489793925284	-0.09226462863457785	0.02305921517428006
Si	15.933523512298436	2.4449266376110073	7.9805011535856245	14	-0.013895538702740294	0.13821105203722006	-0.0513825113810313
Si	6.863316450954704	2.772141645786297	10.815173881291637	14	0.0020381151872813823	0.17648066917496416	-0.0526117568345941
Si	11.766052725030326	2.052867201872555	4.213170058425067	14	-0.02374364341050348	0.0271367311015029	0.0344967771909588
Si	1.838963351430382	7.233603125029068	1.4033748457467112	14	-0.24025179443059697	0.08114768345132159	0.049084457445882954
Si	12.894600133929831	11.651792207100717	14.918767699914328	14	0.01437813517133209	0.2552621644001535	0.07757436127737978
Si	12.30210394169771	11.326566412924663	2.2540525872906674	14	-0.10978362606500282	-0.013360491685617478	0.02222180617150783
Si	3.5367714851532397	15.276472472043158	13.76045612124959	14	-0.017827787179374763	0.03297159751504695	0.0964413892271584
Si	7.3354281761214395	3.143119361944763	3.3962085892320872	14	-0.04506324872517135	0.057661921904428946	0.13932845440935643
Si	11.676937912270539	13.58449212656289	14.500621425501041	14	-0.37430562627566955	-0.12535012611530733	0.19021217135827898
Si	7.984601336617961	14.322523427045104	16.22591987146478	14	0.04376998274913687	0.09659899798328347	-0.04194475508236375
Si	10.204416079317983	12.383135207411806	1.761731171840551	14	0.15078195727902008	0.1361852781554754	0.29099152948159124
Si	2.432535594907747	8.764871761821736	16.048354962616575	14	-0.04940918804781765	0.17840874105454319	-0.17138011044085438
Si	14.603624538812976	7.621751591639165	10.143553370429885	14	-0.020029424665017562	0.13422892411737472	-0.04777987860643981
Si	9.134189331640064	2.7983568208481793	1.8665128958498993	14	0.06526956543621511	-0.18804241557860604	-0.0014434185267311315
Si	0.25565101901338694	4.278901323329494	3.6920272520530277	14	0.47516443155337446	0.4459232507473303	-0.41200600069553284
Si	3.3425080379442114	2.3057260817985124	8.256008115148862	14	0.21538303533199668	0.10687904838483153	0.02547528284362321
Si	10.03842777071678	14.05450933607948	0.07862084511121634	14	-0.057037143311632975	-0.11312837697598348	-0.2336808205638945
Si	13.050574913664743	1.7182136192634003	14.116421770800098	14	-0.035613665342031114	-0.1328459265656671	0.33378706331439195
Si	3.8000585191959493	4.196181940524236	9.609234694987641	14	-0.04950868982370738	-0.03399181210608171	-0.010434059610224934
Si	6.831247162237504	13.4235220997629	10.598344619360102	14	0.024348110271270294	0.0167831470877986	0.010142239156388127
Si	7.057754304023053	11.307385059075957	5.880496654885862	14	-0.13436904935732277	-0.2651789176199646	0.07994363482989625
Si	11.629476483799122	13.41322392737149	7.5611126487592495	14	0.19233590435272133	-0.18378620783163288	-0.06763472522021932
Si	1.3997715548796101	0.0935391274363335	1.79998199653387	14	-0.07153457776981993	0.10816794348182178	0.028335894622819966
Si	9.62034072848213	13.247288269595742	3.8397062361021304	14	0.07450883240416722	0.013982699173093312	-0.21491355150053762
Si	3.6322718558377853	8.088237905173655	14.205245358681585	14	-0.009455496925376575	-0.21893630288444133	0.20323944779440528
Si	3.4596742233036375	12.430119487777532	8.812226243303947	14	-0.02612217294217247	0.14555927104220326	0.023038389221186863
Si	13.802649176498878	5.380057140285848	9.660103619068995	14	-0.004269320384105885	-0.11619570562292011	0.00231605167238939
Si	4.587507555382905	6.6777584886670605	4.589743570126462	14	0.0422201204621516	-0.12263015379712269	0.26423892151491846
Si	5.1125909469726185	11.767752359489558	10.38326435203666	14	0.08685913680949853	-0.017535195393941914	-0.017726742740292945
Si	8.87133666690736	16.315348943839002	6.407842386631861	14	0.08618756409987584	-0.028610488671011777	-0.014920381283351318
Si	10.884256700303956	16.03178146996621	0.9131101031659448	14	0.15632243213340713	0.09777219334086704	-0.012044342872233675
Si	15.04544723129822	4.644001891096506	7.8321344181290105	14	-0.035494366055176245	0.1947583997853648	0.17607957674502106
Si	7.681330936656791	0.7271753584086365	9.95598645008346	14	0.04268111964605416	0.03252782473678939	0.016270211576429057
Si	4.4429234526676	5.210016363462876	2.7826421947880497	14	0.22684219463336466	-0.16715295618399895	-0.028395544266247397
Si	13.528804006614076	9.710793201276143	9.526171436478627	14	0.08190358841544512	-0.03877638199634526	-0.09855818023723631
Si	8.783199185095087	7.691601138297178	8.688360240405325	14	-0.005614265577075345	0.050312674457317685	0.08921684038807431
Si	16.26004912372792	3.9332634622597142	13.72991535180889	14	-0.13821593713732835	0.014015609321191207	0.03224423181997706
Si	8.128046865232793	13.297321361822995	12.56847763038274	14	0.0698219645160693	0.06448640675569799	0.0857147378315006
Si	3.619958144034413	6.923555576628818	7.042900189891459	14	-0.06486410212722775	0.13910451113597153	0.14658822739132654
Si	10.856868399037396	3.526654299974333	7.913626378565839	14	-0.05365099760499795	0.09572122262698493	-0.07510995682801784
Si	8.41305565545243	9.635198133290315	9.98312301459081	14	0.03373624423725899	-0.08797551073950682	-0.09793828674454862
Si	10.022240932565849	5.20382660079528	4.5530640435053265	14	-0.02273731278819752	-0.020459313474546322	0.011701871643589951
Si	4.660922550127222	3.0929118638581907	11.714362777139527	14	0.09095259358970628	-0.05120819044032526	-0.13295365587858127
Si	11.445014316816268	14.809349412588318	4.1272916260924895	14	0.08872601638245804	0.07272448531198447	0.006650678131627037
Si	5.805472519288565	10.878609899273869	3.9300205004793236	14	0.24009418567447185	-0.20265786377098777	0.028727988184142548
H	9.825282421228824	12.290163721687412	15.269479784287368	1	-0.0583468643617164	-0.10009492988708882	-0.029790883123491766
H	6.165013488955151	6.547906745049484	15.065104087914321	1	0.10218703828609331	-0.020888945173543068	0.037053484321314036
H	8.600718005419992	10.397183914016422	2.8833813226054037	1	0.09342856801300889	-0.25573473355799664	0.39108517381602
H	8.054213954561423	0.38136802749442283	12.00733335937099	1	-0.25692592665282127	-0.08448986325698207	-0.18244203397025946
H	13.562199437997432	13.25368040887368	12.40994599493665	1	-0.0992768041742177	0.11171838281841424	-0.1840708291905733
H	2.802108192161874	7.263586124787601	8.363555652832915	1	0.1922996517677072	-0.09458865073345969	-0.025442372695525316
H	4.24325506915792	8.277310310060443	3.8006886837631177	1	-0.13895770102219104	-0.20813843187141542	-0.03336549085009364
H	3.555714264949101	9.995711497889529	1.9918679299059294	1	-0.06956819642097069	0.48475748261337887	-0.3810516924146741
H	9.42372280217227	6.523638005191153	3.772077896143016	1	0.13514809426932767	0.17708436470413488	-0.1650845019539398
H	0.9529009645038331	9.078234666887381	6.305826476297216	1	-0.09685919384168247	0.10524896761185765	0.08040797645071497
H	15.872142521847259	2.6810244563209094	4.12359290560425	1	-0.4193755598746733	-0.9806427090523587	0.2130361303957655
H	1.1407854351412854	5.526382010917771	3.2271056552375397	1	-0.06928486061469036	-0.1742677188259127	0.1703331563544901
H	9.319286599204972	0.6816768185237279	14.990389275916574	1	-0.34381694516828964	0.46089942501612885	-0.24945660858725907
H	10.823969859819274	16.303012197299495	14.388949024710223	1	0.39760678246057557	-0.054811337435980774	0.058124463751523595
