72
config_type=amorph dft_energy=-6970.853205318233 dft_virial="-10.58889234884543 -1.0250560950598677 -5.3252607441515085 -1.0250560950598677 6.8722779182909415 -6.326419825952312 -5.325260744151509 -6.326419825952312 3.449974072084929" pbc="T T T" Lattice="11.105996452100001 0.0 0.0 0.0 11.105996452100001 0.0 0.0 0.0 11.105996452100001" Properties=species:S:1:pos:R:3:Z:I:1:dft_force:R:3
Si	10.80439090645032	8.020695107724361	6.354962229856142	14	-0.030786415103453094	-0.03753273835298964	-0.02986750206203217
Si	10.919648937630216	4.6796448770497605	1.5573716704850789	14	0.13414844852085406	-0.06139362416609188	0.0047465175315253684
Si	10.22866715636991	5.947572068000209	7.281657679815818	14	-0.035840436831268176	-0.22535609575831905	0.0778301862567345
Si	4.863582390289441	4.076722541658156	0.4745869933893633	14	0.08696635190134869	-0.28332809296435785	-0.012169555701324887
Si	1.1449282802434413	2.9112370619818773	0.6396365384629571	14	-0.16072827821001293	0.10522634188504035	-0.17606183611831203
Si	3.7768939554408125	7.749664370307313	0.5583917320172647	14	0.13193009885063034	0.1327027159993348	-0.059342653452209744
Si	1.4918240794247848	0.30034168325343075	3.3389067733593447	14	0.07175209327990445	-0.21885788417217678	0.0636844790063438
Si	4.766149483415168	2.688317501195326	4.632722042039638	14	0.0702752503840114	-0.04030850365662151	0.0159827620016365
Si	10.009978980231608	2.0138614426557453	8.676093276352137	14	0.4535473493531654	0.035324673104046474	0.2753137005709243
Si	2.4044149138902937	10.669341989592786	6.979885544219357	14	-0.46825432889494445	0.18078907035993627	0.08832723794730307
Si	4.149377970447794	5.874938851203476	1.9234031015533908	14	0.026958810613348653	0.2734002839916701	-0.271296605618725
Si	1.9511458806907367	8.384938473363883	6.649959707616822	14	0.26670486862747245	0.25260595549390846	-0.016544291403556847
Si	9.766113510136396	9.519749190839462	9.708251268620955	14	-0.2538521702425843	-0.10583080874580716	0.34521819756777034
Si	4.7063547985170615	10.524097767992222	6.673593268066891	14	0.04251554046343662	-0.10715492798568343	-0.04066794418037821
Si	5.632406100682515	9.240855407934328	8.448820164956363	14	-0.16367399357530657	0.023256161841803402	-0.06849964504991715
Si	9.444195096975827	9.585174615938783	7.3986038224564314	14	-0.029691638458134047	-0.023397315523879535	-0.13575153268796641
Si	0.7045688573198049	5.5922023935259135	9.068923476859368	14	0.10713744446950642	0.05090942800212406	-0.3003534381733144
Si	0.9488463598833896	3.167296916181495	9.33664462733369	14	-0.32052581629413224	-0.7155648358714759	0.33649855098502013
Si	7.104194962507712	6.282451179020381	10.069951361072949	14	-0.2014689846709513	-0.16305718540900302	-0.4088597391152677
Si	9.861147521777017	0.6609433926563109	6.647805144305115	14	-0.08848716069821629	0.40187764550787347	0.014882328924613126
Si	10.619731503441255	8.022083357280872	4.010997254654628	14	-0.034945692179856644	0.04447138028047327	-0.0609843041991243
Si	10.51071504226744	4.477693437564774	5.409453221906608	14	0.020779158976372746	-0.0032159385344412168	0.0513529436698496
Si	8.491467191332427	8.884130801892875	3.5030756129142864	14	-0.18882248893273895	-0.021829455499653233	0.07290471979492684
Si	5.9136765668284	1.382019092502872	6.22681013679536	14	0.07332380996211098	0.05028027853028382	0.19026179369095786
Si	5.491404369726654	10.707313391462515	2.954905840031535	14	-0.05563331980683212	-0.06933885382641347	-0.0833547202581367
Si	2.618416359525809	5.851771742604394	3.724673560123038	14	0.15146921373109565	-0.27985864344535005	0.138313639139494
Si	7.437186054131026	8.377075427875797	7.197041092847268	14	-0.06132960364362019	-0.17086357538203661	-0.0522942253275558
Si	3.7557592441924657	1.221748457702617	3.0641777391237466	14	0.08646832880083602	-0.10744134911834793	-0.030097101767121395
Si	2.248186861798603	10.956665223805064	9.308590880295684	14	0.0807435056949943	-0.5400285336806021	0.12232213537976895
Si	7.941420505049271	6.209495888326536	7.88964434958958	14	-0.08098236137923606	-0.1574172087787262	-0.03529356272967268
Si	6.82367970412057	7.98452287727987	4.889525998001546	14	-0.07041049052385118	0.2095774795191023	-0.06701046084848737
Si	4.03009956855224	5.467748597283681	7.12597382155028	14	-0.310972360256058	-0.8658608542449879	0.05624678553621945
Si	6.232474194985931	2.8927566838855827	7.960256275032032	14	-0.09031855901775776	0.08989715485578549	-0.0993009725642271
Si	7.906425510228704	2.656965273211048	9.55041284704371	14	-0.18967532456743205	-0.09466861210891629	0.059782569572487086
Si	0.8982718732398167	0.8089796617649326	5.600087651006905	14	0.20097558956001488	-0.05133160349569237	0.04952000268711603
Si	8.83989561802416	3.5905908649568343	1.9278010761484223	14	-0.10706828173639445	-0.08767109186960129	-0.26678303022920496
Si	4.675924368238307	7.309467094931877	9.507610336717317	14	0.07323690660228997	0.33177851583829227	0.45310871878554815
Si	7.6069078919120185	8.0827776278916	1.5191115127075943	14	0.16493383518217913	0.20377166659567594	0.3439025629754506
Si	1.470078538371573	8.342380294959437	0.8098614778832294	14	-0.10052636135980966	0.21858046190813282	-0.10897964143139253
Si	3.4037546866431563	2.345486496715451	1.0789619931169028	14	0.2992730597177882	-0.06032507279503834	0.16094373683584132
Si	4.91672458331274	9.279781925498938	4.704066963247929	14	0.014190958704025309	0.18030261723336424	0.12227765525773039
Si	8.979109283551233	1.233087680080211	1.631126592923475	14	-0.2309773033197588	-0.05087806051721824	0.024135479861294048
Si	8.09890353474005	1.3369842768896065	5.241663827508281	14	0.0021329889735948464	-0.043859714324810034	0.01905806107506562
Si	5.995039096836485	6.243913371331594	3.3873511298834047	14	0.09513295372973504	0.14390425054762393	0.40264717733019384
Si	5.53385148816658	9.178117633976415	1.1759584343306086	14	-0.1698384756908936	0.16781887246191726	0.06106195157979277
Si	1.235075653445137	3.0897992729387416	5.996471770378807	14	-0.020315845797682062	0.1494490962810553	0.7379910449159356
Si	1.4005994245672353	9.058217296279542	3.0864563680066595	14	-0.08023751216798916	0.0005520163122357926	0.12763840985023917
Si	11.094279625843035	6.529359692143468	0.05754683121620136	14	-0.10190627358513313	-0.09523142706349672	0.10464707185641099
Si	3.1526370008647233	4.2092392913246135	5.337786226801207	14	0.13433948164614107	0.14310180857720572	-0.08999202864209896
Si	2.9252195115150714	8.040363827441029	4.5369106106473716	14	0.19015920658868393	-0.05855640944530847	-0.06031787370014192
Si	0.20670147416754958	0.8989204634326193	1.4101283695231372	14	-0.02348499021529658	-0.04223528998354048	-0.1204598837963857
Si	8.622984401318195	3.4684249039837347	4.312003076495895	14	0.0570325153220567	0.05022757087122078	0.1429220883153274
Si	7.703763286970783	0.7258857069099656	10.823615386308907	14	-0.010661345320526025	0.10393076191421774	-0.24381303240953403
Si	3.977457145369286	0.9419884070742179	10.407084989372896	14	-0.01992606623114761	0.15257915989780357	-0.14701580220606716
Si	8.96248360686244	7.578209997079792	10.807778235368213	14	-0.10866339547701431	0.05109197647985456	0.05100430178843751
Si	5.788800742720988	10.551518473232456	10.438448323353626	14	0.15130414876954215	0.16480913657415192	-0.013363062790937625
Si	7.232013875674931	4.209794591147218	0.18619425171874696	14	0.18940407295615644	-0.24893107465982084	0.21277104943725825
Si	0.2484711268238977	5.762290729189825	3.608105021361796	14	-0.048182770810107016	-0.008879312223131392	0.001069579813181601
Si	6.495975066808455	4.336536222658583	4.556268362463381	14	-0.27603335295003373	-0.27152954776073035	-0.0033254676210795254
Si	6.307472989026962	4.937959248529155	6.8254455575564545	14	0.12731187947458034	0.19013863774612277	-0.17625646879104723
Si	0.5572689157759574	10.320602595000393	10.84383940584818	14	0.4826869714990636	-0.26562011929290197	0.04982596422021365
Si	7.854471658825779	0.035198234555640535	3.3227142305321826	14	-0.09524582525328953	0.0213270615200963	0.009187073529953115
Si	2.6127189833458813	6.87693295710839	8.314715257797257	14	0.45472594403192124	-0.09074176295345414	-0.09292591692291993
Si	4.418642854428959	3.0246514977507224	9.409066830197833	14	-0.4577953295631141	0.6387222111682103	0.5951342626757399
H	10.307497519186915	0.7662771054066081	9.561896447375181	1	0.0035424689101000236	0.564560477982263	-0.14684919458132156
H	8.735621417335395	10.71610934065258	10.18937414092238	1	-0.01527982180710802	-0.22618244900821466	-0.13691084407682116
H	1.5452883463451943	1.6933757030374956	8.906342794797075	1	-0.05905983186699347	0.4184931565287985	0.5163877344829046
H	2.8700116031516822	3.4911810907140874	9.42629223069504	1	0.19672915201325833	-0.414057485630479	-0.015318388386910242
H	2.9839924447395845	9.588506414874413	9.532121270887101	1	-0.0530892110925456	-0.027266314809638367	-0.16645721508436684
H	3.7837463552517576	4.370131861926185	8.234474433430833	1	0.21597593221882283	0.40602843793672067	-0.46303421376344783
H	7.142188576370346	6.588576865226066	2.2658898201432507	1	0.2983135232123089	-0.03237021598066431	-0.41590225369768535
H	1.5706655482382426	3.117586476061896	7.646945009121839	1	-0.34143044521012816	0.21648526818274416	-1.4834480654605169
