224
config_type=divacancy dft_energy=-23080.68882932449 dft_virial="30.44295315692876 2.8814646275960363 -3.9789753929546365 2.8814646275960363 38.4168677357887 -6.158033130721169 -3.978975392954637 -6.158033130721169 30.067804022588" pbc="T T T" Lattice="16.3199774331 0.0 0.0 0.0 16.3199774331 0.0 0.0 0.0 16.3199774331" Properties=species:S:1:pos:R:3:Z:I:1:dft_force:R:3
Si	1.3145676542452318	1.3738532362664542	1.3792469888080936	14	-0.025287592155252402	0.024027493437847828	-0.0066031126832042965
Si	2.672869584015685	2.7429312471359832	0.02926987952626485	14	-0.0022222063282039844	0.008249648530227128	-0.019747888632461352
Si	4.042899049569564	4.091091942929508	1.3876158732357875	14	0.03131246325195539	-0.0037823530364698385	-0.009291717516483142
Si	2.6835591692343654	0.02139875441028072	2.7384269333644475	14	-0.014968975173902116	-0.0026505524745406546	0.014590251360244303
Si	4.034592181056116	1.402702060374945	4.0847271517306	14	0.036554946999737326	-0.0072122075335473755	0.011632966021009983
Si	16.29539954708575	2.778639357759606	2.711743770261329	14	-0.0281142653442232	0.06425577860848071	0.0713430304234689
Si	1.332930892852956	4.108945998241319	4.100508569908407	14	0.025346727577615805	-0.01655586137749751	-0.002430208748603964
Si	0.0046479295729468795	0.04418633890011825	5.473475631400244	14	0.010125526971807165	0.06378475211382958	0.0036813085973880196
Si	1.3708503604187636	1.3803126833344752	6.845414534313795	14	-0.027955371035438048	-0.0698253069529855	-0.020315588687150048
Si	2.6969252307520746	2.7559219491727305	5.467241400020799	14	-0.019296145427711332	0.011749437092012692	0.005107757829006174
Si	4.066416137050661	4.118656384814014	6.814667696829835	14	-0.0027204865392486824	0.008611145938239946	-0.008851030064609761
Si	2.71074825163791	0.02969583093726876	8.228353102017255	14	-0.08430371523180336	0.07209996382972049	0.044125823725445365
Si	3.991915440068559	1.4420609499503523	9.614979984620597	14	0.06123395852571069	-0.13622230207208552	-0.08912710881240114
Si	16.299773301037824	2.7414950891218703	8.165211109328592	14	0.0031791717283630996	-0.018786038132193955	-0.011501325428618403
Si	1.3230670984923902	4.137310119020047	9.489397758272892	14	-0.07243086508442355	0.06660114088151979	-0.10583723650910754
Si	16.239944263768077	0.036604077384699986	10.900782046642247	14	0.03436050860899094	-0.034819450908637375	-0.06542665997127615
Si	1.2413774514510083	1.3357705689263153	12.339551257144343	14	-0.06431799935722829	-0.15945198152909143	0.05190830241900159
Si	2.5312937797835424	2.874388665359604	11.075079405627756	14	0.17631894665032685	-0.16174797857998363	-0.17570496669987545
Si	4.117318146664499	4.134437802991822	12.291031964235737	14	0.10465992738301172	0.06933011206832497	0.06392050647473342
Si	2.6815681319875275	0.01325834966665044	13.637071062962958	14	0.03132557588908815	0.009863017118620046	0.005433002652004906
Si	4.028929148886831	1.409708226686975	14.97343241507235	14	0.013701934472133142	-0.004691238767142185	0.03602272819846667
Si	16.19077217176215	2.6945588340242748	13.710184561863247	14	-0.01992478067848754	0.10966072723069974	0.011286895244918051
Si	1.3300765287999068	4.076012283781323	14.955643639670274	14	-0.06761081394074193	0.0330194200740017	0.0850668192908233
Si	0.0080131089196521	5.466588600923475	16.313939041449753	14	0.03248000217783464	0.02951474641210786	0.053332694766363625
Si	1.3432239026200121	6.816968813647901	1.3855644520724466	14	-0.009776885090395086	0.01610823194125973	-0.04500719862919213
Si	2.6981165891046905	8.174350296691127	0.03259752292487394	14	0.044591708009456194	0.004074944821902691	0.001334146550624838
Si	4.0555796720350825	9.510515809071324	1.4081105008962742	14	-0.02256710561600372	0.0645941360686122	0.0076791202596862675
Si	2.7017885840271383	5.4634225253014534	2.7489696387862304	14	0.0013968815204364515	0.001087834660954652	0.002620984763358952
Si	4.0558734316288785	6.825194082274184	4.106465361671488	14	0.002801476356833347	0.0018689364572156383	0.00046202762603060984
Si	0.0034663632067904403	8.205700973340115	2.7325027815562324	14	0.016335774762092834	-0.0020856806357041216	0.048136490914344354
Si	1.3381891895819007	9.558904542160466	4.105045523634809	14	0.004858360612951811	0.02968803891068584	-0.014586137591732067
Si	16.301193139074503	5.471647793927736	5.462361726768302	14	0.006967181196537264	0.03428080434406635	0.005349184618568079
Si	1.3393511719751374	6.831673113315125	6.824280163537931	14	-0.013720960651502238	-0.01422541151531529	-0.010677286173510943
Si	2.693253235829627	8.187504198502205	5.458461252161792	14	0.012378072342788897	0.0009762486900602255	-0.03378560945940583
Si	4.069288453078887	9.534032896552421	6.805104190054038	14	-0.04324676281648673	-0.020816182892982878	0.029545085454885604
Si	2.7200016788424777	5.487771931631639	8.171690140369533	14	0.021127029526188782	-0.0018146861349605144	0.005791157623101534
Si	4.076306043375119	6.835410388147305	9.555183587305718	14	-0.03445409684264433	0.0027976196988531246	-0.05913336547914969
Si	16.290993153178814	8.187292038795578	8.1786261307786	14	-0.018481105041224393	-0.0070234884030485065	0.003781581704873795
Si	1.320397150184335	9.53661145298685	9.551152552879742	14	0.02459005128189623	-0.02469983747906655	-0.03539820671620271
Si	16.314183841111248	5.47540138873735	10.885082228351605	14	-0.015863976935845663	0.03199123505647449	-0.03964541559455532
Si	1.371135960023843	6.818404971662015	12.254524174717892	14	-0.022545508331314478	0.027830158206346833	0.029227039726783286
Si	2.7159869643939354	8.204917614423325	10.90205500488203	14	0.004323313595828995	0.057129960213690316	-0.00790177798041109
Si	4.030903866156235	9.560895579407305	12.31415737225844	14	-0.1157892138718047	0.08609191898196633	0.046892847270988726
Si	2.716476563716928	5.455588936133566	13.636108184294406	14	0.04779042013825242	0.059729604802892036	0.016050639182088412
Si	4.069582212672683	6.805006270189439	15.023061466446409	14	0.019212327394274507	0.009261892694769425	-0.08399132593540537
Si	16.31550575928333	8.18319572445987	13.601395592294203	14	0.011581543914607022	0.01894673221470321	0.001960724917144925
Si	1.3476025525653128	9.534294016191351	14.979927766090725	14	-0.0200265964491654	-0.017760424219986887	0.0195959363080406
Si	16.309483687610516	10.892524138061098	0.0143289401862618	14	0.013423483765961107	0.0020494280506900336	-0.006732953501871774
Si	1.3681396121671257	12.229717809019581	1.3748405949011568	14	-0.02715652861246804	0.021400595132252537	0.05994994852882873
Si	2.6845220479029184	13.640824657772573	0.0272380423358439	14	-0.03432708423982902	0.005771617222668408	-0.020912856453020448
Si	4.054633113343963	14.999103739574618	1.3755700978924164	14	-0.004315343169336535	0.01385517234921397	0.021624795516169446
Si	2.7152688853868785	10.889717101942606	2.7539309119258926	14	-0.010724851621933682	-0.04381677686596356	-0.0029840248345638603
Si	4.055122712666956	12.2750383863513	4.094274338528963	14	0.00023397058413347516	0.019217212494382786	0.013937961940522737
Si	16.305109933658446	13.590298007639694	2.703241062018684	14	0.011822970704168927	-0.013678280303187781	-0.06734419031904258
Si	1.3209846693719267	14.974525853560369	4.088235946878715	14	-0.01062689250923604	0.005027539343017554	0.0059387390684780324
Si	16.248055292552326	10.915339466512572	5.412014596387189	14	0.006429820184626316	0.0049542628413933336	0.0039944692253820555
Si	1.2932031717875607	12.247735064105722	6.788343573230245	14	-0.030130011915219294	-0.07456333983695436	-0.02499011526971127
Si	2.6858113261201333	13.625451239030593	5.466033721690749	14	-0.02174949412419663	-0.0006098661819391244	-0.03832361034946719
Si	4.05783182892085	15.014819877842694	6.804565630798746	14	0.12881751875005906	0.03166470468081568	-0.030425946137568334
Si	2.637797952511953	10.845000363775911	8.121147170259222	14	0.0025965592628175447	-0.20265709243939173	0.0027904206039567102
Si	3.7399839484337947	12.568879580034263	9.231117795416653	14	-0.01955042774387398	0.031135571205929205	-0.023845973402245375
Si	16.281217486696388	13.629890272892395	8.170580381904083	14	-0.028855772118553905	0.01358674895379051	-0.003442452913146263
Si	1.2945234579618983	15.004766771743904	9.558937182115333	14	-0.025039737602390127	0.04196892347237314	0.061416507003441194
Si	16.277512851819075	10.915486346309471	10.892654697880564	14	0.04578315821481281	0.003675395055151679	0.0021178194522059727
Si	1.3018837677842263	12.264626240748981	12.278008622244124	14	0.03337680371350229	0.0346479581837835	0.02906711697587008
Si	2.6313678814033112	13.672371174150754	10.959582925333708	14	0.017569905315763915	-0.03972306297522379	0.17906514424277697
Si	4.047338083431367	15.004603571969573	12.26188448454022	14	-0.03757181915385589	0.002444092717332764	0.011967981044225279
Si	2.677732937290749	10.936865516746831	13.643533774026466	14	-0.017381186185265046	-0.06289669233625043	-0.015996645970365306
Si	4.05220143670643	12.2889430071243	14.988626314062568	14	-0.007925689259888468	0.050953908124162624	-0.0018599375885951204
Si	16.275146455091274	13.641722256531393	13.624537320294337	14	-0.0027341133974454674	0.0015714595716745058	-0.0017743197814341894
Si	1.3024125350530589	15.002090295444876	14.996035583817196	14	-0.02152349396655561	0.017974340182623203	-0.0076881191283067855
Si	5.385510953035834	0.0922731524067474	0.04041152811984222	14	-0.006865108315327385	-0.015078504260540424	0.006466072769640404
Si	6.776968548959374	1.410114594125059	1.3924318985762951	14	-0.06975125911976522	-0.0062444434910436395	-0.01838623125491093
Si	8.167136866665698	2.728210627491327	0.03105365305970268	14	0.029075344512894553	0.019560455054622557	-0.05908991379923919
Si	9.595363371746013	4.078052280960461	1.3159646443135051	14	0.06154429093785255	0.08283021477282648	-0.08965469962409553
Si	8.09960480004753	16.301144179142202	2.6970231506166726	14	-0.12932299805600014	-0.08393090496038187	0.12193492691855465
Si	9.320012712494748	1.3091477897396993	4.191590363962538	14	0.09483162018621367	0.25344439293880877	-0.12998017257583
Si	5.412520515687615	2.7552038701656745	2.7506505964618393	14	-0.010054307354439062	0.02881257754917542	0.007013718202831945
Si	6.777702947943863	4.101455128599527	4.110985995420457	14	-0.002555678688227191	0.04551139238247316	0.02402337966933559
Si	5.3968370173744065	0.05552709121837944	5.43518896434219	14	-0.05311929302479133	-0.05404643360323673	0.04416824696322781
Si	6.705633927599293	1.3773995673626669	6.8753616929035335	14	0.0023535898100635515	-0.03253656649487789	0.0024836877392630445
Si	8.049616709169944	2.7416419689187683	5.531232031535985	14	-0.046387882186111645	-0.12747822998879393	0.011149083999758115
Si	9.501882541009214	4.0870772284809656	6.795573323233107	14	-0.0066655905424838945	0.04516763560116936	0.0046038211862571505
Si	8.123072927596327	0.02753996191835625	8.182869324911206	14	0.0008011564177581414	0.010997903006933409	0.004797168306332285
Si	9.48269024754789	1.407740037408543	9.521368594064336	14	0.011259384417992468	-0.005676486325822929	-0.011782347240110586
Si	5.367150978423597	2.759398104365981	8.230066699647733	14	-0.03688353425965225	0.07317237185875425	0.051450902782547235
Si	6.790008210928421	4.114511110546006	9.52959386269062	14	0.001513609701971174	0.01942984290435903	0.0028151032150301315
Si	5.391663584528113	0.06023540470782879	10.906608278585862	14	-0.02332275346959524	0.01262001335341483	0.09711270482624906
Si	6.782909020745022	1.3919439312510455	12.259550727767285	14	0.028066442785268444	-0.0032573333300956013	0.03543934440132508
Si	8.135459790468051	2.7555792296466355	10.899150048898937	14	-0.00871836103009012	0.016551233387921242	0.002248945823533525
Si	9.501686701280017	4.100459609976107	12.268102395942233	14	0.008870827575574902	-0.026574430367986516	-0.0306786857905389
Si	8.14951129103795	0.04701948698250441	13.620424685981197	14	0.01321830956141329	-0.022609785964318178	0.005093873860277374
Si	9.531992899373282	1.3906954529774134	14.984986959094988	14	-0.08168067358418828	0.058620687078312174	-0.05315426005714534
Si	5.439366878565065	2.741217649505508	13.636255064091303	14	-0.01089634434678756	-0.01441515908794222	-0.018769840168677023
Si	6.799228998178122	4.0950250574908855	14.998353020612695	14	0.005158665714345105	-0.012667321691305555	0.028465221220423415
Si	5.42449937912351	5.427600174835799	0.04273059691308573	14	-0.035632691521400216	0.048088154134325566	-0.013835889059312859
Si	6.805104190054038	6.740166999847733	1.417179512355848	14	0.11065085988948878	-0.05143084816105009	0.013612717117524004
Si	8.140078344081617	8.127952600848825	0.0788418109793061	14	-0.27013806556146625	-0.033591491007734654	0.009457039588568663
Si	9.479785291564797	9.502649579948569	1.4231722080692824	14	-0.02146872942323646	-0.03323770691568227	-0.05823476416975794
Si	8.214481121199121	5.389493027529511	2.7546163509780826	14	-0.03054190298750702	-0.07685882266678258	0.0024204385483874015
Si	9.508296292140423	6.813933297845344	4.096346975662966	14	-0.0361967920286407	-0.022587674458564907	0.0404802534920074
Si	5.442859353735748	8.147161214287584	2.7425232477001558	14	-0.021664133427567712	-0.019595164976444552	-0.011878763689616139
Si	6.7776376680341315	9.534538815852848	4.08983530466716	14	0.006705699785478205	-0.01292057556534014	0.033280644374528746
Si	5.430456170886592	5.482794338514544	5.464401723947439	14	0.0023404771729307965	-0.017185525070401778	-0.0003532698709883461
Si	6.791003729551839	6.83527982832784	6.832929751577473	14	0.008287443778433304	0.005918941557512893	-0.004727491352156273
Si	8.142102021283323	8.178544530891436	5.4532551793606325	14	0.009778684864119189	0.009638302513639103	-0.0008896024407712353
Si	9.504852776902037	9.527961864947308	6.8186497713235115	14	0.006048782376180371	0.001270383138685166	-0.027285340989007457
Si	8.164182950750305	5.460435969431196	8.166076068132545	14	-0.006693101369409479	0.0049720034681023555	0.013625572644124744
Si	9.524812109302719	6.801056835650629	9.542519284817633	14	-0.07961916133849355	0.02323225056232603	0.03936028001455089
Si	5.42549489774693	8.199956341283663	8.19225331193524	14	-0.017195809491682368	0.05203608635341294	0.01636174292582633
Si	6.8277399987537475	9.557615263943251	9.515379162346388	14	0.056711898488634234	0.08950608973659098	-0.11720974956118653
Si	5.448049106559473	5.476152107699272	10.89848092982418	14	0.01854255445837593	0.04030259011438517	0.0036512266651422868
Si	6.788343573230245	6.843146057450594	12.273079989059328	14	-0.04182751267976499	-0.12540874731660673	-0.03802947590084225
Si	8.147503933813677	8.175378455269414	10.889504942235975	14	0.18975631438501672	-0.12092062586975624	-0.24209656249780317
Si	8.137842507173284	5.456976134215379	13.621273324807717	14	-0.05070142558172407	0.08251216904472417	-0.05445858178605646
Si	9.470401304540765	6.86512906705298	14.94235917803973	14	0.05193787013018329	0.003314411868202889	0.05600227342027336
Si	5.407298122909023	8.178821970507798	13.634835226054625	14	-0.24195875125264327	-0.13398955421206893	0.17550056382692372
Si	6.691304987413032	9.455599085008943	15.131491396511926	14	0.2117127824874853	0.1837319575093778	0.002169241558608934
Si	5.361961225599871	10.91326682937857	0.06110852350049964	14	-0.010292648817616792	-0.1244080731260051	0.04669024417176105
Si	6.771338156744954	12.254165135214365	1.3627523876164593	14	-0.14159591219119502	0.017909548328555472	0.00982316498615775
Si	8.058396857028953	13.595634640260318	16.245509376072764	14	-0.1630718407093279	-0.022588702900692963	0.01907091660166636
Si	9.431657678114586	14.903974591117079	1.3398946272236596	14	0.040992674782312916	-0.14847953246482748	-0.33395855603924585
Si	8.129274519020905	10.903719642580205	2.7372518949892646	14	-0.03430008763396746	0.0228758953649535	0.029546628118077695
Si	9.4841753654943	12.242708511056328	4.114674310320337	14	-0.021013643781570248	0.012456233944521397	-0.05336920446190972
Si	5.4137445139950975	13.624455720407173	2.724554952546313	14	0.004232553578027767	-0.013627886638912876	0.040190489922426714
Si	6.751656263960635	14.9816903236535	4.097554653993016	14	-0.0154947662118724	-0.0017673777970697896	-0.02718841031843788
Si	5.41428307325039	10.902332444498391	5.4383713599416454	14	-0.0012616413805966625	0.0016056552724324753	0.03434045398749379
Si	6.78700533508073	12.253234896500677	6.793157966573009	14	0.027102792511276945	0.04825501886960318	0.043015363337673404
Si	8.130286357621758	13.629400673569402	5.448636625747065	14	0.012943458402689458	0.018409114092260245	-0.02407685865999467
Si	9.485709443373013	14.992445188781915	6.812382899989201	14	0.02469392393683021	0.04863991333602934	-0.0045048336314314485
Si	8.160804715421655	10.923124095748161	8.15724696034124	14	-0.008033161462270658	-0.06499394294589522	-0.014457068104660634
Si	9.489201918543696	12.28231709628646	9.54065880739026	14	-0.010916398968284714	0.059923466144031205	-0.03439753252560108
Si	5.4688570777866765	13.671636775166265	8.119988451861472	14	0.1601829467716095	-0.05231402283852095	0.026381597468975407
Si	6.751998983486731	15.012371881227727	9.545505840687891	14	0.005650775272621448	-0.007969912271395017	-0.08679357362383475
Si	5.892050412604392	10.671045724316498	11.37696634818524	14	0.3118367658646918	0.020588382961617756	0.32454188280420354
Si	7.054734564870736	12.45588005628748	12.551384564225982	14	-0.28319928058781846	-0.004567054380179032	-0.2692749455054925
Si	8.15166552805912	13.694876423031	10.884494709164013	14	0.04138194012778333	-0.032622955633634876	0.15561974904941067
Si	9.51896955738167	15.062425252015046	12.204911443321269	14	-0.028518443100550475	-0.0065236655288117215	-0.06953605760446883
Si	9.645694182149692	9.45532164539258	12.164927498610172	14	-0.004821850917405708	0.20115222449550907	0.24054335777390173
Si	8.832469706658317	12.387923670256052	14.333966739311194	14	-0.014781798706595337	0.4523124474678982	-0.05784961259279976
Si	5.398093655636755	13.699527616599433	13.658091193896793	14	0.13804367308087842	-0.028939590151990734	0.02842228376157694
Si	6.734112288220053	15.07554651387126	15.007280048268601	14	-0.06516440722862105	-0.020801527592658034	-0.027744026178121873
Si	10.775542539820638	16.16552516667314	16.22047453069039	14	0.30780038762259126	-0.28168772777010337	0.24373564213939758
Si	13.874053455269003	16.032549990548244	3.0197670243336585	14	0.029551513218185978	-0.14690653022996086	0.12544577123321687
Si	13.351259298177078	2.87536786400559	0.2372222959743117	14	-0.0893523376384461	0.2767432351289266	0.12531593041454936
Si	14.945149894180789	4.173556788898962	1.3733179410066485	14	-0.00807018537888079	-0.0070705396304072176	-0.026561574841385775
Si	14.950160127252753	14.90529650928916	1.2935181473520194	14	-0.022569933831855883	0.027020002919968176	-0.21071570784433183
Si	14.986015117673272	1.435552542950032	4.124156217208968	14	0.036193192481192495	0.21943149776910184	0.009553970259138247
Si	11.539203243847686	2.9626471033178086	2.116195153772644	14	0.5503029276504459	-1.051038287165353	-0.31098444445106266
Si	12.313341373386786	4.103968405124224	4.035750899453866	14	0.0036309149331131174	0.13271505730487151	-0.11229868128917168
Si	10.842274927544583	0.04162247044537824	5.439644318181427	14	-0.12161842385364444	-0.12609806065293844	0.04004625091396641
Si	12.208697678085748	1.3792584127922969	6.807519546714137	14	0.02217295517042502	0.011208990753717564	0.0030850692736456796
Si	13.577144105828614	2.7395856517621975	5.462067967174506	14	0.08957473824863892	0.06903057829852771	-0.04880163586066665
Si	14.939095182553109	4.105274003318872	6.814308657326307	14	-0.026682931012496764	-0.00451074717366779	-0.004985630326299139
Si	13.572035952892056	0.02459257399393839	8.169340063619167	14	0.020755761917959397	-0.007216064191527599	0.0008908879934313094
Si	14.918891050490931	1.4028456761763564	9.526313547226566	14	-0.021050153477116352	-0.006372998757051044	0.011266583512888883
Si	10.855379869423363	2.7426701274970537	8.16540694905779	14	-0.0008091268442506005	0.01857237928008965	-0.032151414917919716
Si	12.219044543778333	4.09321353999581	9.525464908400044	14	7.14767279001166e-05	-0.0012510998487840553	0.03637008452721868
Si	10.874294723268326	0.08627556070008316	10.86752193263359	14	0.012550079288706802	-0.008729159672434744	0.004918524477443275
Si	12.220415421882715	1.4073010300155926	12.259224328218625	14	0.011722440486151136	0.02412005322937316	-0.014691552909858137
Si	13.57990218201481	2.757749786645238	10.898219810185251	14	0.024666670220436643	0.009670955551204985	-0.011191250127008544
Si	14.978067288663352	4.086816108842036	12.24492802798723	14	-0.0770087181069472	0.03844933739962243	0.05985456052145123
Si	13.518588026798653	0.024982621454589477	13.648886726624523	14	-0.012754482161658576	-0.07996754610937361	-0.03118390798594799
Si	14.728746993417884	1.4342485767531274	15.130218438272143	14	-0.082266114265586	-0.08209564998286017	0.17858897553748557
Si	10.878391037604034	2.7645225772799744	13.631310110929075	14	-0.010843893798256538	0.06392436313271363	-0.014359366102495007
Si	12.218979263868599	4.171647351539289	14.963705708522225	14	0.058809663319343064	0.009949920478441052	0.04352084264361452
Si	10.833821179234238	5.540893458176379	16.280874767170292	14	0.0815179226174229	-0.0825803033357081	-0.026328375588848343
Si	12.22624165382633	6.827495199092251	1.3711473840080461	14	0.02061075157790305	-0.00026430962691122254	0.013072785000292908
Si	13.612754296587639	8.163301671968918	0.02030041992903309	14	-0.0017822902079266483	0.023983527536873293	0.06879455083013812
Si	14.948087490118748	9.544983601410031	1.375847537508779	14	-0.012283455667007448	-0.014193529809345453	-0.018645141560649836
Si	13.645410571431272	5.554520639333019	2.766546254481679	14	0.06234184780816249	-0.0651896040607585	-0.005548445280879554
Si	14.980058325910191	6.8913879107428375	4.12826885152211	14	0.00018563380411469133	-0.010534075607178695	-0.04197560834620552
Si	10.875388161756344	8.169111583935102	2.7545837110232165	14	0.07488729910729303	0.021156854347902494	-0.0011626538257709614
Si	12.220382781927848	9.543204723869824	4.107216080633411	14	-0.025004770570036115	-0.005522991338210089	-0.008756413388828313
Si	10.861858900464304	5.405715085098012	5.391533024708648	14	0.06574264881512236	-0.009450611825268294	-0.0003249877124667172
Si	12.218359104726142	6.77189303597768	6.776984868936807	14	-0.02417558910428836	-0.007906405969987358	-0.013790637605678252
Si	13.574092270048626	8.194962428189134	5.477294506119589	14	0.02787103878093719	-0.00747497449726651	-0.009296088395527393
Si	14.939535821943803	9.556864544981329	6.817442092993462	14	-0.004985630326299139	0.02789083629190233	0.02160396956307625
Si	13.578596583820161	5.457726853177302	8.176586133599464	14	0.023289329100433312	0.006581258287983038	-0.003784409920725957
Si	14.929825435371109	6.827560479001984	9.534571455807715	14	0.004619762039242068	-0.0162483571812078	0.018955731083323726
Si	10.868648011076473	8.138234186631678	8.144452098033689	14	-0.011961553280924908	0.002963455992002676	0.03260881455437405
Si	12.233977323129618	9.508443171937321	9.487635200710118	14	0.014935807915272206	0.06632089040162366	-0.015350012982348062
Si	10.870084169090585	5.436576162424004	10.898839969327708	14	0.011121316062300516	0.03418644477881692	-0.032628354954807176
Si	12.249285461961867	6.789175892079332	12.238514276856021	14	0.05824839102795473	-0.03427900457034225	0.08949734797850246
Si	13.578106984497168	8.184452362722217	10.890271981175331	14	-0.03789217887674634	-0.02095425124867483	-0.028463678557231323
Si	14.936908305577074	9.53987544847347	12.248697942774276	14	0.021095404930750957	-0.030185547790134493	-0.004670155703516971
Si	13.626038758218183	5.456551814802118	13.595406160576255	14	-0.0339290771362701	-0.009094513738427786	-0.09031444524924552
Si	14.966235305024355	6.8200532893827575	14.963118189334633	14	0.011154226210398412	-0.005667744567734425	-0.024037520748596403
Si	10.918521862112026	8.139050185503333	13.615463412841533	14	0.007954228528942111	-0.048104094987310476	-0.28280461592117573
Si	12.26994655339217	9.50149086155082	14.959087154908657	14	-0.06064723229165289	-0.03368765034670819	-0.01975405928522971
Si	10.888101424176728	10.755256807871294	0.04470857817797745	14	0.09497328808935386	-0.21667090198685884	0.10890610781923628
Si	12.168354693871125	12.233585643671226	1.3400023390747182	14	0.01616119671085478	0.1589030505432398	-0.021125743973528704
Si	13.530354730527918	13.565132602437854	16.28632563963295	14	0.09974988755312496	0.1197857399814429	-0.0028719246426054043
Si	16.237512587130546	0.060821291897677085	0.008254644585661981	14	-0.009089628638319504	-0.09622515926973395	-0.019968489468930057
Si	13.551374861461749	10.887823984560367	2.7112052110060367	14	-0.035927854412153216	-0.06741618126800675	-0.032246031593701166
Si	14.886300055557031	12.277159983417603	4.058174548446945	14	0.029547656560205755	0.024332169418285376	0.018397801228851592
Si	10.79897802741457	13.57249291226018	2.700074986396663	14	0.026483927460717302	0.09594799411622199	0.08276825113461092
Si	12.123572675794698	14.929515355799879	4.091238822726406	14	-0.14353581115524675	0.035143410178976035	0.031554661373113344
Si	10.85815426558699	10.894890534788898	5.468710197989778	14	0.005020854469185168	-0.00041317662494779633	0.003281501720104993
Si	12.202479766683735	12.250982739614908	6.84433741580321	14	0.06798748087014364	0.011586943235779332	-0.024528087643680658
Si	13.529342891927065	13.612982776271704	5.45839597225206	14	-0.07382260439421971	0.001409479936505177	0.005009541605776517
Si	14.920767847895737	14.991792389684589	6.792570447385418	14	0.0317657491198975	-0.0289650440946602	0.020300933386825204
Si	13.588192730550825	10.907293717638055	8.182102285971851	14	-0.027874638328385402	-0.03925666447014893	-0.007043543024545663
Si	14.915529135139712	12.287278369426122	9.54907991574574	14	0.030284535344960194	0.004063889069026053	-0.023262332494571762
Si	10.847774759939538	13.63844194106734	8.182347085633348	14	-0.02179268869357512	-0.01372224620416231	-0.026291865893302242
Si	12.210541835535688	14.99637830334329	9.540854647119458	14	0.016942298507115768	0.019732204890008445	-0.024440927173327638
Si	10.893127977226122	10.894449895398203	10.818823119973219	14	0.0385719791233935	-0.13501362546108392	-0.004636731334355046
Si	12.192263460810615	12.223206138023773	12.236523239609182	14	0.006506439123166729	0.03621401843428569	-0.12071313767042027
Si	13.549090064621117	13.634623066347993	10.922520256583136	14	0.004633646007970868	0.007835700573683286	0.00010490109706204162
Si	14.901934593937941	15.006153969825718	12.281958056782933	14	0.015627692356924055	0.025280650170888	0.029801167544772352
Si	13.580408101315236	10.898725729485678	13.606226305614399	14	0.03660714043773634	0.03444406953189575	-0.036596856016455744
Si	14.948691329283772	12.242186271778468	14.968144742384027	14	-0.07189761784102483	-0.01023171362152928	0.01072845116938189
Si	10.741286907188561	13.558082372186755	13.509350919571517	14	0.04914847796835463	-0.02863722816634132	-0.11012044086194224
Si	12.158660627275863	14.85139162382763	14.874419111985734	14	-0.31601609756259247	-0.04142796291301398	0.11532641491417805
H	10.02110262304329	2.32744094166669	3.263293727590377	1	-0.3555766666815829	-0.16335157696816	0.5136677621647199
H	6.646914648795	9.595314411813712	12.137509936522564	1	0.33498391284092094	0.06089123018653493	0.32191627005126827
H	14.75910215144345	15.157978719885847	3.9115232312331085	1	0.09392761955564963	-0.10651009477139028	0.09342214024970852
H	7.743045933089161	10.360525513696905	14.473910545800027	1	-0.3196472696062376	-0.05431408566706414	0.014818051291609423
H	11.547167392835037	1.4429324367452798	2.322022709158901	1	-0.030162664952785172	0.5026294928042602	0.0272061509451469
H	8.989565809429338	10.366270145753356	13.212441570131128	1	0.0126472670698084	-0.05022217155004847	-0.34711978706255187
H	11.80603487487887	0.3071142313293057	0.8948292586501029	1	0.023472134688695842	0.3552444798742198	-0.14462184604247727
H	2.8539070936810633	13.447547165032368	8.35445756764282	1	-0.1448239349206409	0.16811429246320228	-0.14611385845975922
H	9.817135545084406	11.384995777082324	15.297612446803452	1	0.08138653913556335	-0.22521108541826268	0.08263429654743121
H	1.6103427652540196	3.814354085596431	12.00366980159371	1	-0.08122404527932998	0.02585812042579326	0.0840980268061915
