227
config_type=divacancy dft_energy=-23126.937976753983 dft_virial="46.809831879603756 -0.5347870638474638 -0.5786874944618078 -0.5347870638474638 48.06298962623139 -1.3688952455200007 -0.5786874944618079 -1.3688952455200007 46.82579567255441" pbc="T T T" Lattice="16.3199774331 0.0 0.0 0.0 16.3199774331 0.0 0.0 0.0 16.3199774331" Properties=species:S:1:pos:R:3:Z:I:1:dft_force:R:3
Si	1.3818777691703095	1.4175891437894188	1.470072559216525	14	0.05994917719723269	0.017432094070603976	0.22138450937028634
Si	2.7271008690258762	2.746782761810195	0.06764304246471288	14	0.011393596115704199	0.002303453256320664	-0.004371393265315764
Si	4.098958172052262	4.103772565395026	1.4021275971693	14	0.0019841219755582723	-0.03433813999270566	-0.019585908997292026
Si	2.751923554701621	0.01242276682207572	2.7518582747918887	14	-0.10943446996252672	0.053462021363967056	0.038307926607014285
Si	4.089492585141064	1.3725117341214532	4.114396870703975	14	0.020644947278661018	0.005771103001604379	0.0035404120258439053
Si	16.29122163286288	2.7548937905944455	2.776844160241965	14	0.08879852155248623	-0.04142744869194995	0.020093188076957234
Si	1.3563092605258715	4.083062514032423	4.130880047911406	14	-0.00894179008241099	-0.00860060440642734	-0.000686485120479537
Si	16.288039237263423	0.04009492055764008	5.487706651721906	14	0.10973194684806785	0.019193558325437423	-0.03554013172987488
Si	1.3538482079289602	1.3771923036492664	6.831868953044322	14	-0.007242803686857139	0.0043438824383901795	-0.010773188401952466
Si	2.716966163039921	2.7199853588650447	5.471680433882602	14	-0.0010623807182851862	0.018162030870994016	0.005352012834420242
Si	4.077807481298965	4.085053551279261	6.823447844688842	14	-0.005266652137791325	-0.004795111422076168	-0.005006199168860324
Si	2.722351755592844	0.022333889117197348	8.175639574908343	14	-0.029269205854033715	0.0082787020203448	-0.00532630178121876
Si	4.065632778133872	1.3803159473299615	9.544249202425542	14	-0.007262086976758249	0.0004777113684835131	0.0017378100858880866
Si	16.313841121585153	2.728373827265658	8.19151891295075	14	0.043354235018868925	-0.0018830775364764528	-0.010678057505106987
Si	1.3619886126725904	4.089427305231332	9.530997380749865	14	-0.020548273718623448	0.01489209912482969	0.012092422541720445
Si	16.311164645286127	0.00404245841017887	10.905743319781909	14	0.1355273323040495	-0.0799153526713746	0.07317545718513843
Si	1.3280218436410793	1.3828406478388624	12.265491199552935	14	0.013840774159421138	-0.008707819498277515	0.0217836898249546
Si	2.701772264049705	2.7318989423912075	10.908452436035804	14	-0.012805904268061538	-0.02652018004573139	0.03413733666720209
Si	4.0576359891916525	4.077040442359609	12.281158377888712	14	-0.006071150992465659	0.010620207635403655	-0.02675106530348069
Si	2.726415429973686	0.02742735407406786	13.589220889129109	14	0.04899112632276157	-0.032339105606290525	-0.14992269388102658
Si	4.061014224520305	1.3702220412875894	15.004195572533746	14	-0.003250134235199187	-0.016842796731226038	0.010975277280116104
Si	16.26791670508841	2.7477456404787475	13.608609022319632	14	0.018440738687698067	0.01358520629059842	-0.00022291483125683843
Si	1.3328264449973841	4.050781598669751	15.002465654925837	14	0.00528670675928848	0.07082032471188279	-0.06301881983895746
Si	16.314901920118306	5.433605926531181	0.03042859792401495	14	-0.024996543033011638	-0.04834500755580836	-0.0065043822389106104
Si	1.336438056003329	6.749224587323103	1.437891195716195	14	0.03180071615225152	0.017320765210241566	0.034546142413105635
Si	2.865167878109902	7.992398868289497	0.19856026943529778	14	-0.4119628061261543	0.3329779364701414	-0.41208596207098946
Si	4.116600067657443	9.509667170244803	1.4389993221839028	14	-0.03178606085192667	0.12085557690515647	0.10758327413202011
Si	2.728243267446193	5.425886577205324	2.780565115096712	14	-0.03468909586890586	-0.006779233397634439	-0.0021206476680581355
Si	4.0719322894230485	6.8108977820427885	4.121675580639137	14	0.011244472007135608	-0.006620339088849288	-0.00873430188307504
Si	0.00411426631088451	8.15445624420018	2.761682901206615	14	-0.04358254917129807	0.011788260782346927	0.013642799049769736
Si	1.3451741399232675	9.546958318679437	4.097489374083284	14	-0.024242694953144222	0.010856749324857279	-0.02109489070968693
Si	16.31206224404495	5.443202073261843	5.477816745397448	14	0.008781867331497778	-0.0005448172173393779	-0.006639365268218385
Si	1.3636956823120927	6.803831231814256	6.814928816468765	14	-0.01484350523427889	0.012027116466588685	0.01758147528970458
Si	2.7051178594234906	8.183179404482436	5.457645253290137	14	-0.00894564674039121	0.024293345727951138	-0.02227837048855109
Si	4.063543821022435	9.540870967096891	6.812448179898934	14	-0.006581772509047067	-0.01407140230663842	0.024079429765314818
Si	2.724097993178186	5.450970382519999	8.1787730105755	14	-0.0003794951452538564	-0.004780456121751323	-0.007278542050807197
Si	4.077562681637468	6.811762740846743	9.544787761680833	14	-0.009116368133649045	-0.0527889059911523	-0.040263509313518915
Si	0.00323951552047035	8.14856473234683	8.174921495901286	14	-0.04249137207342723	-0.00032395927033865795	-0.0012063626162134786
Si	1.359091816678215	9.519181717088301	9.51128284801068	14	0.0034992743407215353	0.030014569286344647	0.01008207529189666
Si	0.00300940383866364	5.453467339067263	10.873756164013034	14	-0.003582321042562319	-0.0054458581786056455	0.013213424461305006
Si	1.37740119936041	6.784785818149829	12.238383717036555	14	-0.07977137077344632	-0.002020117450040346	0.04280119026450507
Si	2.7182391212797032	8.174448216555728	10.88842782372539	14	0.020585040524701562	0.04100167365093343	0.08939038999718431
Si	4.12247525953336	9.505668775773692	12.23882435642725	14	-0.12912990804645705	-0.040585411699601455	-0.03382443314974007
Si	2.684358848128587	5.42033778487807	13.645557451228171	14	0.012009890060943692	-0.062335934265926145	0.01277350834102767
Si	4.085461550715088	6.743953234612213	14.984073040358734	14	0.03278364971614413	0.022077567163047526	-0.08789220692713402
Si	16.235831629454935	8.08170178480342	13.531839848474329	14	0.07007778949542402	0.09278579168297187	0.1003636103930443
Si	0.9625098370629119	9.9015424683684	14.58047999843817	14	-0.36614056711047527	0.29477696784444524	-0.4088623102205878
Si	16.210747824140263	10.948566940566364	0.05538184341922485	14	0.08059258181270161	-0.16577227262707941	0.09975760086908539
Si	1.3785468617762138	12.2563520121904	1.316601123433396	14	0.031048153625044175	-0.13034552664182306	-0.29613142612709925
Si	2.7643593775056434	13.62076740550729	16.310316006459605	14	-0.06418841564909283	-0.03460244961961688	0.05334760717722047
Si	4.099774170923917	14.964864426919974	1.387844352919851	14	-0.010551302012823687	-0.02577584505554852	-0.012529253335613605
Si	2.707778015745086	10.88389086999899	2.714159126921428	14	0.005936682184221914	-0.046920358097914304	-0.02065805991579377
Si	4.050536799008254	12.257739210272213	4.097081374647456	14	-0.001963296022465073	0.01714721560113157	-0.0362402437085512
Si	0.26211842154850573	13.357052890165829	3.0274537337046485	14	0.12751885345285227	-0.08779784736188459	0.06795097117459753
Si	1.3792731007719867	15.05222526611936	4.152291858303633	14	0.04746851775216988	0.2019767779716806	0.028784295390653792
Si	16.281152206786654	10.8808879941513	5.4624106867006015	14	-0.024507004580055447	-0.010945709568934403	0.03526142391317083
Si	1.3318325583717083	12.267270077093144	6.786956375148431	14	0.009670184219608939	-0.046655277139407036	0.037851555412688
Si	2.724097993178186	13.64624289028036	5.474438510068797	14	0.023187770440287463	0.0367212975139509	0.05130692088461895
Si	4.0944701782581605	14.97674537049127	6.842117898872309	14	-0.02441393056746608	-0.039229924974819384	-0.03799990818966054
Si	2.6898260405686756	10.907342677570353	8.151078008871528	14	-0.006516209323383292	0.04334626459237646	-0.03234759025384701
Si	4.039684014015243	12.2702566329634	9.507578213133366	14	-0.002312966346005212	-0.1089755276628803	0.03359637610784293
Si	16.30339633602797	13.618711088350722	8.16124535481235	14	0.03150246793511434	0.0029973945822286308	-0.006063694787037229
Si	1.3334563961263017	15.000719417340495	9.501654061325151	14	0.0319583249083766	-0.0151301834774754	0.044778370255698946
Si	16.295987066273344	10.86257697947136	10.849406757682848	14	-0.0006363485667366496	0.01884285955976923	0.05123210171980264
Si	1.379749644113033	12.230909167372197	12.158056788110837	14	0.19516720553126837	-0.09345093662929417	-0.13094793661833376
Si	2.699454827254205	13.65771583441583	10.840691889733574	14	-0.038415141698864466	-0.012815160247214071	0.04160716895382831
Si	4.064979979036548	14.996557823095054	12.21597638802091	14	-0.06709736420830838	0.07657702952369434	0.09756444803099908
Si	2.7841391901545607	10.934270640334967	13.529506091701396	14	0.038832432092324495	-0.032048056484049764	0.02338214600249066
Si	4.12453157668993	12.248387863203048	14.954403321385357	14	-0.1978923200600933	-0.0027073739021159274	-0.005136554208591832
Si	0.10796970670190298	13.423475198318545	13.734762447877495	14	-0.23175146313165537	0.369954544742383	-0.34295408222284796
Si	1.4046800416398368	14.97268169611043	14.956378038654762	14	0.1780385018884419	-0.21014955045283526	0.008096667763678317
Si	5.443985432178631	0.017108232343118732	0.029411863329932817	14	-0.03080826949867436	0.022577904258348342	-0.02428691796465077
Si	6.798298759464435	1.3707442805654486	1.3954266144352692	14	-0.007273142729634886	-0.006521351534023588	-0.004116339617557074
Si	8.160445675918128	2.7175373622500794	0.03380193725943672	14	0.003914250739393435	-0.013449194819162586	-0.009282204426798595
Si	9.51870843774274	4.079357879155109	1.3878737288792304	14	-0.01935528085007474	0.013352007038060991	0.03621119021843353
Si	8.145822976138069	0.0252306851115726	2.769059531006376	14	0.06759024509818076	-0.02001039848564847	-0.018792980116558354
Si	9.515003802865426	1.3740017480610953	4.115506629169426	14	-0.06113085720237275	0.024299516380719494	0.009236952973163988
Si	5.443251033194143	2.72959782557314	2.7511728357396987	14	-0.01750665612488827	0.014484578931586216	0.0025009141449080364
Si	6.797988679893207	4.082719794506327	4.10747720027234	14	0.03019351821662695	-0.011186879247964292	0.018506301873361844
Si	5.440476637030516	0.0073276698674619	5.471092914695011	14	-0.008406228844224144	0.00349361790901721	0.013079726984657309
Si	6.796356682149896	1.3687401873366638	6.818453931594314	14	0.029201071563049796	0.019109997402532615	-0.00993757917290434
Si	8.151012728961796	2.7259747905829923	5.464744443473535	14	0.013286186741865198	0.00695355433834048	0.0011343716672493325
Si	9.48484448456906	4.09052074371935	6.832293272457583	14	-0.041426934470885926	-0.010289306380700598	-0.006412593778981323
Si	8.16526006926089	0.01486586744381079	8.162012393751704	14	-0.03136619935314649	0.014650672335267782	-0.03655520411026934
Si	9.515003802865426	1.3617731889704736	9.537933371158932	14	0.010846722014108702	0.01144296133785104	-0.00712144751574615
Si	5.430358251021993	2.7196915992712487	8.177320532583952	14	0.011522151381711601	-0.023559809380112894	-0.015455171189942118
Si	6.779906144897332	4.0641803001423265	9.547105198476336	14	-0.03750059953648779	0.00021520151529639422	0.0026400109427280475
Si	5.4453726302604455	0.02693285875784493	10.879647675866382	14	-0.0022358331864007694	-0.08231522237720082	0.01445861076785272
Si	6.789257491966498	1.3687989392554232	12.264218241313152	14	-0.010538703596754961	0.011523694044903691	-0.008982156435937314
Si	8.154554164064777	2.7138327273727656	10.899998687725457	14	-0.023792494411586294	0.00791026262796758	0.02635588641577393
Si	9.519034837291402	4.041626091329782	12.280913578227214	14	0.012074681915011425	-0.003311069431286696	-0.005593439623982146
Si	8.156479921401884	0.01616167365199893	13.616312051668055	14	0.011313377629715578	0.05114828368636581	0.017912376544407638
Si	9.510711648800521	1.364297889479374	14.987810315190913	14	0.0011649678205590947	-0.014332626607165467	0.01151623783947526
Si	5.427388015129169	2.718418641031467	13.633513307882543	14	-0.02685288107415855	-0.0080894686687819	-0.0016781604424606514
Si	6.800648836214801	4.059529106573892	14.994289346231852	14	-0.0018277987720932694	-0.0287166753207339	0.05149255468873363
Si	5.4648260433607	5.427175855422539	0.033101810227556726	14	-0.04017429195890977	0.015569071155624678	-0.024364051124255208
Si	6.80237875382271	6.782484701331762	1.405086409077921	14	0.10836026215976885	-0.028031218642382415	0.02576427508160786
Si	8.179164690033893	8.118356454118162	0.06095021971939857	14	-0.18076438774886283	-0.07061746450212311	0.09356123704752853
Si	9.49907550489072	9.496137908952763	1.4149502034384867	14	0.062161613325220105	-0.03309372501775398	-0.09785061205313156
Si	8.162501993074697	5.430635690638356	2.753131233031671	14	-0.041544948205080715	-0.01464784411941562	-0.008729416782966758
Si	9.514742683226498	6.795459083391076	4.107020240904213	14	0.00905363316383743	-0.0034550513292149884	0.012496857408579738
Si	5.468791797876944	8.145104897131013	2.7818054333816273	14	-0.013797065368978623	0.03382880402878432	-0.07274042616496938
Si	6.805087870076605	9.529626502645485	4.119668223414866	14	-0.007610728858170329	-0.02185850898977091	0.016694958175317524
Si	5.433654886463479	5.440231837369018	5.461953727332475	14	-0.0005306761380785634	-0.007405554653622512	-0.02464584426734344
Si	6.781652382482673	6.808710905066753	6.8108325021330565	14	-0.03246586109857382	0.006070893881933644	0.0018681651256195941
Si	8.160282476143795	8.15909111779118	5.4625575664975	14	-0.02862745796612476	0.03673312459842359	-0.003726045829958596
Si	9.514416283677834	9.542470324885334	6.790612050093445	14	-0.008565123153009295	0.016380254884131397	-0.00041163396175570747
Si	8.097581122845826	5.439154718858434	8.182249165768749	14	-0.02821608111490106	0.0147776849380831	0.003920164281629776
Si	9.620398217128386	6.711966078843337	9.457459562436316	14	0.08640585094155642	-0.1476413521304592	-0.15065494467620474
Si	5.416714749887922	8.160951595218554	8.158421998716422	14	0.048637085120177184	0.08595899283691469	-0.0036268011646008805
Si	6.777229668598303	9.57225428370074	9.447357496405228	14	-0.02396938645761248	-0.07290497690545886	-0.03960504924102899
Si	5.410284678779281	5.413320194581837	10.892426218196501	14	0.05314191875160863	0.008764898036384802	0.08424946490954822
Si	6.78095062345305	6.692806425336877	12.298114834441702	14	-0.038420283909504756	-0.04901889426021917	-0.05074024927205831
Si	7.843022114844332	8.488379302458839	11.231914388759847	14	-0.1873428178209937	0.3269011290459714	0.2904132878950899
Si	8.17988276904095	5.394731740285536	13.649474245812115	14	-0.07530818904820126	-0.03054010321378291	-0.04428651780795462
Si	9.51139708785271	6.776429989704082	14.994517825915917	14	0.021536349493156352	0.030275536476339675	-0.018856743528498025
Si	5.4269963356707756	8.104043833909333	13.60490438744232	14	-0.1306484028485365	-0.24610337302872196	0.2840842550390134
Si	6.703153291029462	9.377018393668566	15.098835121668293	14	0.39152586126789335	0.701606562198924	-0.5219606052643255
Si	5.417090109368883	10.874523202952389	0.045674720842016965	14	0.008249648530227128	-0.2179469415572483	-0.02428846062784286
Si	6.7788127064093135	12.226649653262157	1.4014486861080828	14	-0.06942704273889455	0.03240441168142229	-0.05560555186937451
Si	8.077132191122152	13.62692003699957	0.042955812601662514	14	-0.21540051884817368	0.02761907045956268	0.009990801053031406
Si	9.460984677561864	14.971392417893215	1.3906269090721943	14	-0.023757013158168253	0.04267032100370954	0.03069719774884396
Si	8.154619443974509	10.88194879268445	2.7505363566198078	14	0.004396590097453215	0.013036275304746806	0.0312638693614046
Si	9.50676221426171	12.250248340630419	4.10584520252903	14	0.010121670313826943	0.004063374847962023	-0.011397709884216433
Si	5.441945434999495	13.603549829315371	2.7575865868709073	14	-0.013902737797636707	0.004508433178879657	0.02309675331195422
Si	6.79632404219503	14.971294498028616	4.113613511787186	14	-0.004418444492674474	-0.003997297441234219	-0.013214195792901052
Si	5.424695218852708	10.89559229381852	5.452275980714647	14	-0.032727342509632884	0.013423997987025135	-0.014461438983704885
Si	6.787184854832494	12.256662091761628	6.80711154727831	14	-0.009813909007005217	0.02683796866330169	-0.023764983584660712
Si	8.15710008054434	13.613260215888065	5.466784440652673	14	0.006438561942714819	-0.00675197968124087	-0.025630063383896128
Si	9.530638341246338	14.970886498592789	6.813443698522352	14	-0.015164122067701354	0.04375892699626023	0.022557335415787156
Si	8.173811737435836	10.913838028588728	8.138642186067505	14	-0.0702839921420999	-0.06302576182332187	-0.032586188827556754
Si	9.509732450154535	12.264218241313152	9.510075169680631	14	0.04176786303633756	-0.023072584921944833	0.0006574316303618638
Si	5.444572951366224	13.60807046306434	8.180747727844905	14	-0.02259821599037751	0.035476625428467225	0.02271314439818813
Si	6.798086599757805	14.99285318821774	9.510695328823088	14	0.08866148163892233	0.02398738419485352	-0.03774871119988209
Si	5.408685320990837	10.886322546636519	10.832336061287826	14	-0.1265037810724578	0.19431719811242743	-0.1791677313450509
Si	6.67113349530572	12.39512078030405	12.095045355241638	14	0.6690764234673464	-0.4906111180957601	0.7387016984264244
Si	8.18193908619752	13.6574547147769	10.841883248086189	14	-0.274649069845666	0.05336611913552554	0.0050159693690768874
Si	9.500544302859701	14.992412548827048	12.23934659570511	14	0.07974154595173259	-0.08003388062663344	-0.028910536661873057
Si	9.712508169760804	9.500870702408362	12.221166140844636	14	-0.041584286116478984	0.401000127262107	0.43318162411227246
Si	9.75624570928151	12.487377612733363	15.229917180410952	14	0.08389028149632355	0.04819048412606746	0.026544091325208765
Si	5.413989313656594	13.666447022342538	13.598980235634103	14	-0.05924752255536428	0.007229433939192369	-0.20013458100979448
Si	6.784508378533466	14.99389766677346	14.962661229966505	14	-0.07387608338487878	-0.056281495458041446	0.03811946458704744
Si	10.841018289282234	16.317268316846107	0.03182558799228831	14	-0.03188684818047647	-0.008663596486770966	-0.08151663706476284
Si	12.195217376726006	1.3721690145953582	1.378501165839401	14	0.015595296429890187	0.04274025506841756	0.0928369566788428
Si	13.55511213629393	2.7496713978158533	0.04692483111339243	14	-0.013174600770970773	-0.072491028948915	-0.08291891790637158
Si	14.941037259867649	4.090063784351222	1.390840700776568	14	0.012808989594445716	0.030032309913053667	0.008959273598587995
Si	13.555193736181096	0.07483525651948006	2.7775459192715886	14	0.26579958244424834	-0.09065717358842126	-0.2031065216493536
Si	14.943109897001653	1.3951100068730669	4.128497331206173	14	-0.14258475929732398	0.02390253771928863	0.00821288172414901
Si	10.86863169109904	2.7309034237677885	2.758386265765129	14	-0.03430651539726784	0.005746677501062972	-0.0570566837120661
Si	12.225164535315745	4.092544420921055	4.116714307499475	14	-0.026195192333264675	0.020054364386623003	0.012916718907359919
Si	10.883564470450326	0.01233137494845036	5.452879819879671	14	-0.02087763231013442	-0.03806649981745238	-0.006539863492328654
Si	12.221247740731801	1.3747067710862053	6.83180367313459	14	-0.016553033161645348	0.017308423904704853	0.01316174524437003
Si	13.576605546573322	2.735897336862317	5.477996265149213	14	0.08191310150512966	0.03400286785895835	0.037674920477193834
Si	14.946700292036935	4.084286512339905	6.833549910719931	14	-0.06838754485795868	-0.005399578282842981	0.005907371583572226
Si	13.585026654928802	0.013677773086681111	8.186329160127023	14	0.00916650468739193	0.0036291151593890133	-0.007384985811061328
Si	14.955692599602573	1.3597707277394322	9.54340056359902	14	-0.08288549353720967	-0.0035887488058626883	0.03539177895290234
Si	10.858562265022817	2.740401650633853	8.190196994778669	14	-0.008989098420301713	0.007378815158292972	-0.005201860283723593
Si	12.23456484231721	4.075163644954802	9.560650779745808	14	0.01735856045844774	-0.029902211983854173	0.02966232785748436
Si	10.883140151037066	0.013914412759461061	10.896424612667609	14	-0.011643764663354605	0.01455528432789029	0.0007960142071178453
Si	12.254181455191798	1.3596091599628444	12.253920335552868	14	0.014930408594099893	-0.004579138575183728	-0.09176146332342486
Si	13.609718780785082	2.722514955367175	10.898986849124606	14	-0.019425729135846795	0.025461398874894414	-0.014797739559580256
Si	14.959854193848013	4.113433992035422	12.230533807891236	14	0.02345593672517891	-0.04595413671860266	0.043102523808026434
Si	13.60764614365108	16.308961448332656	13.598882315769504	14	0.06021040149775973	-0.04330898356523432	0.23765986315735566
Si	14.86965367857527	1.4195459090836475	14.957455157165347	14	-0.21431705506626328	0.029072002075978362	-0.09282435826277408
Si	10.891022700137254	2.6976106698042646	13.63070627176405	14	-0.0013274616767924533	0.0019625246908690284	0.03407717280271062
Si	12.228085811276271	4.090847143268012	14.973220255365723	14	0.0004638273997547135	-0.0014305630001303913	0.0034591650977272253
Si	10.876628480041258	5.43708208172443	0.02795285734741368	14	0.0029667984289188684	-0.03155003338353708	0.00485887483401584
Si	12.228004211389104	6.798869958674595	1.389177695076135	14	0.01206645437798695	-0.0012572705015524107	0.005422975341256328
Si	13.591228246353381	8.153346485734728	0.03610468607524713	14	0.09108346285050181	-0.0011783375682238644	-0.02673023935038749
Si	14.949850047681522	9.495126070351912	1.4082231087405628	14	0.07217452588400479	0.067281969570295	-0.024855132240403494
Si	13.587458331566335	5.447363667507283	2.7532781128285686	14	-0.005627892435272131	-0.013015449351653606	0.01659365662570369
Si	14.958401715856468	6.795834442872037	4.10752616020464	14	0.017421809649323383	0.013922278198069835	-0.000417547503992048
Si	10.878293117739435	8.154113524674084	2.7584189057199953	14	-0.022239032577152824	-0.008042931662487221	0.028825433075776154
Si	12.238905956314415	9.510352609296994	4.115408709304827	14	0.004015809399539285	0.017395070153993844	-0.02261030018538221
Si	10.861010261637782	5.447396307462149	5.482370019101283	14	-0.010646432909669165	0.00671289888037462	0.00010130154961383431
Si	12.235903080466725	6.816854573805871	6.817017773580202	14	0.010718938079697342	0.03104146875121179	-0.01892873447746217
Si	13.608249982816105	8.15599032207889	5.462492286587767	14	-0.019213870057466595	-0.008615002596220167	0.022541394562802238
Si	14.966300584934087	9.503530858729958	6.827560479001984	14	0.03126181247714848	0.05177717604767403	-0.03805904361202395
Si	13.576148587205196	5.441259995947305	8.184436042744784	14	0.016761292692577343	0.010274393969843738	0.007982253576931726
Si	14.95352204260397	6.7960792425335335	9.51785979891622	14	0.009464238683465078	-0.014491778026482632	-0.002126561210294476
Si	10.881344953519424	8.214856480680082	8.142183621170489	14	-0.024009752811138804	0.053311354592206386	0.027288426315391634
Si	12.248436823135346	9.541833845765442	9.484469125088097	14	0.021589314262751406	0.10943087041507851	-0.021420135532685663
Si	10.889047982867847	5.406139404511273	10.962781640910594	14	-0.018750813989307925	0.0415202655940073	0.03245094868771697
Si	12.257233290971786	6.785667096931216	12.259730247519052	14	0.051146998133705726	-0.04904640508714475	0.1171500999177591
Si	13.551260621619718	8.137891467105582	10.832793020655952	14	0.04410705465660828	0.05537723771694537	0.046908273902909615
Si	14.906765307258139	9.484289605336333	12.178783159450875	14	0.06081152592161035	-0.0797641716785499	0.06259510168219708
Si	13.605116547148947	5.435319524161655	13.618972207989652	14	0.013969586535960556	-0.04674886537306043	-0.016942812728179796
Si	14.945541573639185	6.783725019616677	15.001829175805947	14	0.02791320490818762	0.006877963841928126	-0.09317814235482647
Si	10.913609548904663	8.092570889773864	13.650420804503234	14	0.016120059025732412	-0.005521705785550015	-0.2936942753941309
Si	12.239395555637408	9.481727368879335	14.975749851867853	14	-0.04332415308662319	0.003989841235805789	0.02889845246686836
Si	10.877248639183716	10.793674034748813	0.04068080774748837	14	0.00045354297847412115	-0.20719483621892104	0.11389508058245162
Si	12.186061869386037	12.190272423563778	1.410124386111519	14	0.055007255661376056	-0.1735889470213936	-0.09824604805137033
Si	13.431161907689535	13.486160231639083	16.232828753607247	14	0.5125848126038736	0.12353338309609074	0.009590737065216364
Si	0.2773612804710211	0.33639553483977375	16.05964115308719	14	-0.0391571626942592	0.06883645984685653	0.0747757131363986
Si	13.582284898720042	10.856114268407852	2.7482352398017404	14	-0.02079715671361378	0.09520108802071897	0.042824844433450436
Si	14.883313499686775	12.225409334977241	4.133409644413537	14	-0.22111222931688262	-0.07679223103899073	0.03521668668060025
Si	10.839826930929618	13.603664069157404	2.726921349274112	14	-0.019171189709152135	-0.03137931199027925	0.004903612066586416
Si	12.21677606691513	14.964962346784574	4.070006532085943	14	-0.0009011724147119016	0.032572819079891985	0.04885640040398581
Si	10.881769272932686	10.893030057361525	5.446776148319692	14	-0.00938247753428437	-0.016041640313467897	0.0017689204602618785
Si	12.233340844009728	12.249693461397694	6.812807219402461	14	-0.003717818292934122	0.017690233044746845	-0.0016809886583128142
Si	13.563141565191016	13.634786266122326	5.4614314880546155	14	-0.014797482449048237	-0.09777167911980301	-0.0576315828616512
Si	14.934264469232913	14.976696410558972	6.817817452474423	14	0.0023870141792254767	0.007834672131555228	0.014725234389552078
Si	13.613407095684964	10.89436829551104	8.150441529751637	14	0.007597616221037573	-0.04854118289173566	-0.030223085927808657
Si	14.952559163935417	12.257853450114244	9.516717400495903	14	0.03123147343437073	-0.03794514364634139	0.02519786057957923
Si	10.888656303409453	13.615006453473407	8.178821970507798	14	0.011766920608189697	-0.045909913707096114	-0.031948811818692045
Si	12.245825626746049	14.965223466423502	9.553225190013746	14	0.020869404773109942	0.09222709049690368	0.008454565624242929
Si	10.921345218207954	10.925408892588795	10.817892881259532	14	0.03050590751302494	-0.2878884624707045	-0.017219720771159748
Si	12.2423494715528	12.247881943902621	12.218097985087212	14	-0.028939590151990734	0.011218503843402115	0.009135651423550155
Si	13.631048991290145	13.621828204040442	10.91364218885953	14	0.04945212550666412	-0.14834377810392363	0.02050173671232877
Si	15.015896996353279	14.932550871602436	12.300987150469927	14	-0.10467972489397688	0.07994569171415235	-0.0815505756549888
Si	13.536752161681692	10.816701522906916	13.550020303334803	14	0.12696889402487258	-0.006599256025224075	-0.01895958774130395
Si	14.841974996848732	12.168860613171551	14.925386401509305	14	-0.40319276587912933	-0.13964341481107456	0.1500242525411724
Si	10.884951668532139	13.628209315216786	13.545972948931395	14	0.038647055398741824	0.1325376510377813	-0.1743862467811715
Si	12.200586649301496	15.002857334384231	14.950453886846548	14	-0.010041194717306306	-0.10831218249028207	-0.13192341397679794
H	9.235116189887762	10.538821267153521	13.247317361905665	1	-0.081780175360078	-0.28067676915822115	-0.27616499354242535
H	7.533252623186661	10.32480108309585	14.205675396709596	1	-0.2218578498597256	-0.44131917245054114	0.44937058876058483
H	14.53457190191886	14.17153400391955	0.6992571770828058	1	-0.20704005567864817	0.0583417221510761	-0.01551096417538933
H	1.9240437394753245	8.904914086483851	15.585790608317131	1	0.715115149550982	-0.6531183440767834	0.7197457102325687
H	14.472490707763349	15.610221614534481	1.847437765404353	1	-0.12794719959918893	0.12939061812592004	0.28929691396508167
H	0.042058213842842015	10.76960206803499	13.688642191651555	1	-0.13904280460828797	0.24933525241614812	-0.27949946003212534
H	10.52380688791507	5.809095967311944	8.568118712196965	1	0.11421466897374602	-0.1062810092873651	-0.12001071169695582
H	7.550910838769275	11.572463357856345	13.07071888610209	1	-0.307586985881019	0.3510669479500432	-0.500819434658876
H	6.874496734099579	9.311118324793709	12.128501308979493	1	0.37420843849456803	0.1760929464926858	0.017005804808523425
H	1.1590203173326123	1.217347916678512	15.17916205059401	1	0.1544743216292847	0.08767057764853725	-0.18101609895970536
H	10.645880319114658	13.35248329648456	16.118066672297687	1	0.1474526329999603	0.20857963354435283	0.177155070100439
H	1.1649917970753836	12.470323236315773	3.8897687013147864	1	0.07781295985108952	-0.11214004409091853	0.11723108973534375
H	1.0089271168781349	12.562775908474284	14.738294180216247	1	0.13254870679065794	-0.039522259649720226	0.10895881547829932
