223
config_type=divacancy dft_energy=-23066.771172125493 dft_virial="30.530754018157445 1.4327504173226826 4.665418489833471 1.4327504173226828 32.48232770637692 -2.9253650582103803 4.665418489833471 -2.9253650582103803 34.57757553115243" pbc="T T T" Lattice="16.3199774331 0.0 0.0 0.0 16.3199774331 0.0 0.0 0.0 16.3199774331" Properties=species:S:1:pos:R:3:Z:I:1:dft_force:R:3
Si	1.3367987275046007	1.3629824992982662	1.4511544413760755	14	0.1094948909375502	0.0651273833120109	-0.07657060176039396
Si	2.6936285953105883	2.7105360919312798	0.058510383093150126	14	0.02051844889690973	0.026433276685910386	0.018536640916139588
Si	4.069435332875784	4.08999850444149	1.3842245819251893	14	-0.015821296587531203	-0.016179451558627832	-0.02281367461620592
Si	2.7418378086479653	0.01872391010899563	2.753473952557766	14	-0.05894181813279867	0.0036252585014087918	-0.0007065397419766922
Si	4.0869956285938	1.382143784802469	4.1125527132540345	14	0.013151975044153469	0.0026135285579305225	0.015073104939368111
Si	16.296297145844573	2.7483331596663394	2.7548774706170125	14	0.11169961374957717	0.10835666261232065	0.06334972109366054
Si	1.35385799991542	4.099513051284987	4.114086791132746	14	-0.011586429014715302	-0.011711127622742486	-0.04916904681091582
Si	0.00809960480004753	0.020257987987707032	5.529192034356847	14	0.061848709807758084	0.07453891433641296	0.11226114315149753
Si	1.3731155732864782	1.3788128774083732	6.864459947978223	14	0.05236158828694369	-0.04050159366616463	-0.008782895773625838
Si	2.7096874531047583	2.7273783086422387	5.4695751567937325	14	0.01266166525960123	0.022786163789280337	0.012577847226164401
Si	4.07436396606058	4.08446603209167	6.8278705585732125	14	-0.0032642753144600006	0.0010492680811524308	-0.002761367113839037
Si	2.731654142729711	0.01247825474534826	8.209878887562986	14	0.0027384842764897185	0.014974374495074428	-0.0039397046820629006
Si	4.083796913016912	1.3758720174749286	9.563653655593498	14	-0.025523876734174014	-0.015131469030135476	-0.0176616937756932
Si	16.311572644721952	2.738165813725518	8.196104826609451	14	0.0005543303070239258	0.017146958490599554	0.01962961778773454
Si	1.3562129726590164	4.089443625208765	9.554008548930536	14	0.0012405583169714483	0.00647764274358107	-0.005980390974664432
Si	16.314591840547077	0.012047407341114421	10.89458045521767	14	0.009414616350786222	-0.001805944376872011	-0.0021005930465609803
Si	1.3565605881783414	1.345882426943864	12.274614066938037	14	-0.009006067715414692	-0.008132406127628373	0.04245537659894515
Si	2.7092141737591984	2.725860550740961	10.919762180396942	14	0.001076264687013986	-0.006903160674065578	-0.010826410282079531
Si	4.064196620119759	4.090455463809617	12.272867829352696	14	0.009047462511069075	0.02262804081209123	-0.0018349978669896841
Si	2.7244733526591474	16.273661337144862	13.610746939363368	14	0.010052764691246975	0.025885631252718845	-0.021546119693372917
Si	4.043323368982825	1.3513838913365621	14.990160391941279	14	-0.03305618688007982	-0.011806258519587965	0.03182617009492098
Si	16.295481146972918	2.709899612811389	13.622366763295735	14	0.007602501321145854	0.02457950975008362	-0.015088017350224971
Si	1.3386314609703378	4.062107663008322	14.99600294386233	14	0.01785324112204423	-0.004921095582763423	-0.013800150695362797
Si	16.307264170679616	5.433703846395779	0.02724457032681714	14	0.01915910551414744	0.02000654182766825	-0.0028863228323982334
Si	1.3463736582646004	6.796960521314921	1.3848382130766737	14	-0.02141962131162163	-0.01800776455178513	0.0010243283595469945
Si	2.697186350391004	8.165374309102924	0.02847672862301619	14	-0.013411656681488426	-0.008852829838333867	0.0322763706364789
Si	4.012919251024959	9.519181717088301	1.431888708016301	14	-0.04991466735375876	0.11289337794972193	0.0036741095024916052
Si	2.716721363378425	5.452194380827481	2.74970403777072	14	0.006974894512497708	-0.007390128021701623	-0.011070151066429569
Si	4.075441084571165	6.807878586217665	4.113009672622161	14	-0.005535075533214784	-0.02169010159130121	0.0003226737176785839
Si	16.304946733884115	8.157214320386373	2.7421805281740608	14	0.025069562424103842	0.018934133798634484	-0.012027887798184728
Si	1.33170526254773	9.524616269573524	4.104098964943689	14	-0.0020388865188774264	0.03564734682172505	0.024921980978727346
Si	16.312111203977246	5.463699964917816	5.46671916074294	14	0.019857674829631675	0.0020818239777239	0.014127195292085634
Si	1.3593056083825887	6.812970419176792	6.826630240288297	14	-0.003700848997821145	-0.007708173749803942	-0.001417193252465621
Si	2.7132288882077416	8.175655894885775	5.461937407355041	14	0.0006849424572874483	-0.004981259447254888	-0.021379769179159333
Si	4.074951485248172	9.534049216529855	6.816185454731113	14	-0.003046245583311444	-0.005228856889585148	0.023311183495654576
Si	2.715660564845273	5.447020947981189	8.187748998163702	14	0.006922186853434674	-0.0007438207691188392	-0.0022404611759770363
Si	4.071132610528827	6.811974900553373	9.54744791800243	14	-0.010286478164848433	-0.017048999377901913	-0.02793043131383261
Si	16.31532623953157	8.15698584070231	8.193248830558657	14	-0.0258622341943055	-0.005620436229843701	-0.007360303199987905
Si	1.3537062241252922	9.526721546662392	9.537378491926207	14	-0.005913542236340582	0.0026909188280669796	-0.002232233638952562
Si	16.312584483322805	5.447804306897977	10.906265559059769	14	-0.03102552789822687	-0.005012626932160695	-0.003522671399134883
Si	1.3487074150375338	6.800583556305069	12.268118715919664	14	0.00805038786791565	0.008060672289196243	-0.001495097743666108
Si	2.7042202606646697	8.163432231788384	10.904388761654962	14	0.014912153746326843	0.007632069032327558	0.026906617175349645
Si	4.055889751606311	9.535256894859904	12.259485447857553	14	-0.014061889216953874	-0.034381077451552125	-0.056724754015234975
Si	2.699307947457307	5.438828319309772	13.638115541518678	14	0.00191393080031823	0.0010027310748577508	0.02729279719443589
Si	4.062793102060513	6.817556332835493	14.982571602434888	14	-0.013751299694279984	-0.010827695834739604	-0.0593557660893425
Si	16.308357609167633	8.161180074902616	13.622774762731563	14	-0.015005484869448218	0.006306150018727194	0.019832992218558252
Si	1.3427391992902489	9.524567309641222	14.985264398711351	14	0.00590917135729633	-0.005355098160804419	-0.015285735349344359
Si	16.279667088840245	10.879321276317722	0.00462018561131061	14	0.028100124264962386	-0.026187736127836248	0.016566145798778104
Si	1.3073264802581652	12.268069755987364	1.335388681454381	14	0.0016084834882846382	0.044293716902851034	-0.0548535035632312
Si	2.707973855474283	13.60865798225193	0.01301355000515394	14	0.03553704640349071	-0.055943909329506	-0.04858849122962638
Si	4.070137091905408	14.962351150395277	1.3768120481750752	14	0.006440361716438924	0.03373675845832302	0.018488818357184838
Si	2.6510497741876304	10.921818497553513	2.744710124676191	14	0.013653854802646375	-0.07741366719487053	0.038118436144919374
Si	4.043633448554053	12.266992637476779	4.100035290562847	14	-0.013769040320989008	0.011059095313552932	-0.004793825869416094
Si	0.028868408081410588	13.56795595853378	2.874437625291903	14	0.3470809633722176	0.09835120625896439	-0.2160852041949291
Si	1.3720825187149628	15.039348803924643	4.138354597575766	14	0.14792237394195135	0.07655080424942882	0.054956604886569144
Si	16.287631237827597	10.855347229468496	5.476429547315634	14	0.024803195912936504	-0.08095382211018241	0.07407971492623451
Si	1.3335412600089538	12.252337297741857	6.795459083391076	14	0.0049084971666946975	-0.04577904444630058	0.010850321561556908
Si	2.7083981748875434	13.640906257659736	5.473149231851582	14	0.0686168874525159	-0.024954119795229195	0.060256424282990384
Si	4.08257291470943	14.97989512613586	6.8351655884858085	14	-0.03164696405410666	-0.00038180914004198977	-0.024994743259287536
Si	2.690821559192095	10.887742384673201	8.152856886411735	14	-0.0062004775900691075	0.07137182680305455	-0.009254179378808982
Si	4.040679532638662	12.26062784627787	9.49858590556773	14	-0.07182871221844488	-0.10039009277784183	-0.038263960706039754
Si	0.0006201591424578	13.603876228864033	8.18267348518201	14	-0.016414193474357353	0.0177311136193372	0.006673818079508368
Si	1.3560889408305248	14.96731242353494	9.546125999830348	14	-0.004264692394529619	0.01597093491716382	-0.011261698412780602
Si	16.31371056176569	10.879598715934083	10.89911740894407	14	-0.013289272068249376	0.013782410068653779	0.0035797499372421707
Si	1.3532231527932723	12.242300511620499	12.254768974379388	14	-0.00926266402636547	-0.0040212087207115955	-0.0006486898722733603
Si	2.71401224712453	13.603582469270238	10.899052129034338	14	0.0051941469677631484	-0.0016822742109728881	-0.028670138314439216
Si	4.114494790568574	14.930217114829503	12.2493017819393	14	0.004877643902852921	-0.010995846122677289	0.08358534840535398
Si	2.700172906261261	10.882454711984876	13.624064040948777	14	-0.025970991949347762	0.00569422695253195	-0.003752013993692092
Si	4.064098700255161	12.228444850779798	14.982196242953925	14	0.0003090468594817991	0.04907545857726243	0.05304215986518689
Si	16.291009473156247	13.58979208833927	13.601411912271635	14	0.04893019112667406	-0.010601952787630604	-0.04012672651048704
Si	1.3343393069054326	14.923346404330168	14.968993381210549	14	-0.001420021468317784	-0.05762721198260695	0.012245146197737242
Si	5.427959214339328	0.00386293865841477	0.016031113832534128	14	0.007869896274441256	-0.002376986868476899	-0.03326367507941577
Si	6.7867442154418	1.3688919631267917	1.3803551152758011	14	-0.013462050345763327	-0.027197409187058392	-0.0013724560198950446
Si	8.136569548933501	2.7344448588707713	0.019185765470352358	14	0.028323039096219225	-0.01405263323780134	-2.1854395221258672e-05
Si	9.49444063129972	4.105322963251171	1.372937685532457	14	0.010334557834335203	-0.015406834409923334	0.014352938339194637
Si	8.143407619477971	0.0262914836447241	2.7580598662164673	14	0.07660325479795986	-0.017300710588744408	-0.012311223604465047
Si	9.534783615514344	1.3646846729445385	4.097652573857615	14	-0.030291734439856607	0.012776850777943863	0.02466127089926433
Si	5.439432158474797	2.7369907753503346	2.741886768580265	14	-0.02605275309852847	0.012187039217501895	-0.020945509490586326
Si	6.801301635312125	4.0845802719337	4.106498001626354	14	0.029545856786481653	-0.00742149550660743	-0.011700843201461893
Si	5.4384366398513775	0.01728775209488283	5.472447472821958	14	-0.0005684713862847403	-0.003935590913550665	0.0033216109630993034
Si	6.804647230685911	1.378917325263945	6.8183886516845815	14	0.019740689537564936	-0.002428151864347846	-0.014193015588281425
Si	8.169209503799703	2.727900547920098	5.462851326091295	14	0.0017200694591790648	0.0010402692125319128	0.014182216945936804
Si	9.508116772388657	4.096510175437297	6.828784477309466	14	-0.0012642124859168105	0.016103861062215476	0.02359709040725504
Si	8.20499921431049	0.009401938999208909	8.117328295539876	14	-0.0762376436214348	0.05706619680175064	0.004889985208389631
Si	9.508524771824487	1.3708503604187636	9.525497548354911	14	0.012507656050924361	-0.002254088034173821	-0.0011945355317407975
Si	5.4391873588133	2.7278842279426647	8.188173317576965	14	0.0007047399682525885	-0.006596170698839896	-0.0026412964953881216
Si	6.789893971086388	4.095302497107248	9.545065201297197	14	-0.008914022144953392	0.010455656894914178	0.018231707825170033
Si	5.451933261188551	16.31966735352877	10.888411503747957	14	0.01622084635428222	-0.0018388545249699063	-0.02527087997067144
Si	6.781978782031335	1.366944989819023	12.259860807338516	14	0.0076351543587117356	0.0036244871698127472	0.012670407017689733
Si	8.144321538214223	2.722025356044182	10.894531495285369	14	-0.007470603618222257	-0.0005044508638130531	-0.004408417181925896
Si	9.50612573514182	4.080173878026764	12.25230465778699	14	0.0010454114231722089	-0.00576853189628423	-0.002118847894334032
Si	8.144566337875721	0.012044143345627801	13.614272054488918	14	-0.017731370729869213	0.01684408228388611	0.01103544114460757
Si	9.49543614992314	1.3776247830512436	14.973922014395345	14	0.002823073641522591	-0.048769497044164806	-0.007530253261649692
Si	5.40981139943372	2.7150567256802485	13.627246436548232	14	0.0006489469828053751	-0.01317717187629092	-0.002083880861980018
Si	6.772741674804201	4.082866674303226	14.97774088911469	14	-0.002734627618509497	-0.00932848432256126	0.0006895704468637148
Si	5.416959549549418	5.4460907092675015	0.01381812489260577	14	-0.0030192489774498897	0.012543137304342403	0.06036183960111645
Si	6.765430324914172	6.79873939885513	1.385897379612082	14	0.11344976514100197	-0.053593661956358646	0.004285004126558789
Si	8.139654024668356	8.128164760555455	0.022581952774180472	14	-0.17047353870497017	-0.06051456325713325	0.17102169835922573
Si	9.47185378253231	9.482380167976661	1.3931271296149452	14	0.058444052142818004	-0.031975551314021584	-0.03972357719628782
Si	8.141759301757228	5.455474696291534	2.7452813238863496	14	-0.0729615412225021	0.0007373930058184691	-0.01101667207577049
Si	9.499760943942912	6.8106693023587255	4.108897038309021	14	0.012119162037049986	-0.012415867590995073	-0.009373735776195866
Si	5.421741302937316	8.172979418586747	2.7513360355140293	14	-0.010091845492113225	-0.01396701543064041	-0.008455336955838971
Si	6.785471257202019	9.538749370030587	4.099137691804026	14	0.0026474671481564772	-0.002179011758825497	0.0029331169492249286
Si	5.436200802943043	5.441325275857037	5.467371959840264	14	0.0006602598462140268	-0.009096313512151889	0.002520711655873177
Si	6.790775249867776	6.806817787684513	6.823235684982212	14	-0.014938379020592354	0.004440813108959762	0.0011611111625788725
Si	8.139882504352421	8.173974937210167	5.4607460490024256	14	-0.00596367879008347	0.004265206615593648	0.010228114074081075
Si	9.50385725827862	9.532172419125049	6.81491249649133	14	0.009064946027246081	0.004724920246836125	0.008704477061361321
Si	8.152285687201577	5.463357245391721	8.19652914602271	14	0.002752882466282548	0.0004838820212518684	-0.0004067488616474261
Si	9.499320304552217	6.838070544468899	9.565138773539909	14	0.005032424443125835	0.013104409595730728	0.021541748814328663
Si	5.429819691766701	8.165847588448482	8.179719569266618	14	0.024165561793539778	0.013311897795066679	0.0044791225782299686
Si	6.785667096931216	9.53723161212931	9.534294016191351	14	-0.098882653728639	-0.0029721977500911795	-0.023275959352768546
Si	5.426882095828743	5.451362061978393	10.908305556238908	14	0.01659057129931951	-0.001026385243803113	0.015109614634914217
Si	6.789861331131523	6.808417145472958	12.272198710277939	14	-0.04052241961925782	0.028658825451030562	-0.021561546325293807
Si	8.130041557960261	8.209862567585553	10.936767596882232	14	-0.09780458926790092	-0.07439698932274079	-0.025766846186928
Si	8.14118810254707	5.430146091315364	13.614990133495974	14	-0.018036818041902804	-0.005750277048511178	-0.006931185722055192
Si	9.495354550035975	6.794985804045516	14.96236747037271	14	0.06371584649124962	-0.020095759182277385	0.02627129705074106
Si	5.423667060274422	8.180502928183406	13.610453179769573	14	-0.08759087338361267	-0.10461236193458899	-0.008580806895462199
Si	6.671753654448177	9.4610009975393	15.11092822494622	14	0.5154965893789412	0.7067302608809151	-0.12169144324473664
Si	5.352299798959476	10.884413109276847	0.09586681143751603	14	0.01755807823129123	-0.19501242499099547	-0.007991252445552245
Si	6.7657893644177	12.233096044348232	1.4010831186135815	14	-0.06054644496310309	0.06101310057870996	-0.041909788050009736
Si	8.099115200724537	13.625320679211127	0.06012769285677033	14	-0.23745211784748768	0.03669327246596129	-0.019622161582306112
Si	9.488793919107868	14.965696745769062	1.4110024008974196	14	-0.05364225584690944	0.00867928022922387	-0.008136777006672626
Si	8.153052726140933	10.890484140881961	2.73823109363525	14	0.009667356003756776	-0.010798385234089916	0.062350589566250995
Si	9.522298832778022	12.254475214785593	4.09536777701698	14	0.0014030521732048067	0.0052939058541848945	-0.028054615700795763
Si	5.425935537137623	13.615251253134904	2.751939874679054	14	0.0013547153931860228	-0.019436013557127388	0.012716172692388368
Si	6.788963732372702	14.976190491258546	4.109207117880249	14	-0.009125881223333592	0.01670061460702185	-0.01633088966198455
Si	5.418689467157327	10.901483805671871	5.449566864460752	14	-0.0054366021994531125	0.002216549896499659	-0.018216795414313168
Si	6.7937944456929	12.255258573702383	6.803096832829766	14	0.001962781801401044	0.00738729980584946	0.009993629268883569
Si	8.164525670276403	13.616361011600354	5.45134574200096	14	0.018700420325033024	-0.013602946917307441	-0.04236975879178422
Si	9.59167505684613	14.985705038102044	6.73288828991257	14	0.006992378028674716	-0.07176289192224908	-0.0006327490192884423
Si	8.13998042421702	10.890663660633725	8.16883414431874	14	0.005937710626349973	-0.004305315858587958	-0.040721937392101316
Si	9.504183657827282	12.258555209143868	9.503791978368888	14	0.01765578023345686	0.045151437637652427	-0.004124567154581549
Si	5.440982556330942	13.607841983380276	8.168621984612109	14	-0.03219666637155433	0.027964627014590578	0.0039034520970488134
Si	6.809053624592848	14.995676544313667	9.48154784912757	14	0.12822179364738073	0.0037543279884802248	-0.016307492603571207
Si	5.362042825487037	10.877167039296552	10.839027252035397	14	0.008642770533677768	0.16245863209047257	-0.05832398152436709
Si	6.723128943407577	12.286951969877462	12.107611737865126	14	0.509553993652483	-0.5700883544205814	0.06493840707098003
Si	8.147993533136672	13.634851546032058	10.837721653840749	14	-0.13598241794571572	0.07082469559092705	-0.06449591984538254
Si	9.479197772377205	14.985607118237445	12.222814458565377	14	0.09849235994104051	-0.024975974190450455	-0.04837843192497029
Si	9.601483363283425	9.499842543830077	12.229473009358085	14	0.4589718673576138	0.27015297797232307	0.35605412093953437
Si	9.712965129128929	12.452436541049096	15.171883340658848	14	0.1412328721199901	0.06331655383503063	0.1766742734055713
Si	5.471566194040571	13.546935827599947	13.623378601896588	14	-0.15569919620380326	0.18378723627376095	0.03726611473129029
Si	6.7873480546068246	14.965582505927031	14.967491943286705	14	-0.06076318914159156	-0.030663259158618002	0.08242860812181935
Si	10.82894150598174	16.301748018307226	0.0011260784428838999	14	-0.07797776770211101	0.02457488176050735	-0.05698829231055016
Si	12.142552809549393	1.435332223254685	1.2872447480267357	14	-0.2511931331204871	0.2792595759057555	-0.335992300347483
Si	13.577176745783483	2.7630537793109955	0.00413711427929085	14	-0.1391165953309762	0.007735941687261541	-0.048659196625930455
Si	14.932322391918373	4.091418342478169	1.3868831062490412	14	0.014743746347857144	0.036865536522411216	0.013859286117726204
Si	14.445350585292102	15.221316552303707	2.4056136335712393	14	-0.11132371815177153	0.7084899253620245	0.3635933730698046
Si	15.037129286993743	1.5007296368246035	4.270399534986978	14	0.3255458994317213	0.12040280525827843	0.15372998663910187
Si	10.851544674726584	2.7511728357396987	2.738802292845409	14	-0.05791877532591174	0.01936068017124705	-0.016967752449785233
Si	12.221394620528699	4.098794972277931	4.097097694624889	14	-0.00992369520417554	0.04337968896153839	-0.003510587204130187
Si	11.005180942281788	16.301519538623165	5.322727999850699	14	0.1289674141902237	0.015921826805548992	-0.14234384672882608
Si	12.235119721549935	1.3536034082674637	6.798135559690104	14	-0.023733616099754905	0.0076883762388388005	0.02790523448169516
Si	13.564365563498498	2.7995126088965407	5.519726447445649	14	0.000714767279001166	0.014412845093154087	0.054701294128278434
Si	14.961747311230253	4.125249655696987	6.852236284880831	14	-0.0016838168741649768	0.01425960721607326	0.0023551324732556406
Si	13.588600729986652	0.014514987928999142	8.179931728973248	14	0.011807801182780053	-0.018227851167189807	0.01331626867411093
Si	14.948560769464308	1.3717283752046645	9.541866485720309	14	-0.001026642354335128	-0.008348636085052827	-0.0039037092075808275
Si	10.868827530828238	2.7153831252289105	8.161180074902616	14	-0.0006792860255831225	0.006622138862573392	-0.005575698997273124
Si	12.223108218159174	4.080549237507725	9.525954507723036	14	-0.01164402177388662	-0.013276416541648637	-0.016798830830251504
Si	10.866689613784501	0.01654519312167678	10.886959025756411	14	-0.020760904128599694	0.011018728960026607	0.0050339671063179235
Si	12.228330610937768	1.3748618108718198	12.247457624489359	14	-0.020122498677606925	-0.017977939730071415	-0.0044973774260030205
Si	13.587213531904839	2.734885498261465	10.892915817519492	14	-0.0018481105041224394	0.018491646573036997	0.012989995408984139
Si	14.9583690759016	4.079798518545803	12.255519693341311	14	0.018457450872279027	-0.011591314114823585	0.026609140289808517
Si	13.585940573665056	0.013263245659880369	13.5990781554987	14	-0.026494211881997895	0.016653563379663137	0.022623927043578993
Si	14.891979407703749	1.3812771940007713	14.97305705559139	14	0.0010371838861477352	0.03580418424625408	-0.07140319428796037
Si	10.866689613784501	2.7251914316662034	13.613064376158867	14	-0.007466746960242038	0.016810143693660157	0.004306087190184002
Si	12.214638149871396	4.103609365620695	14.965778345656227	14	0.026493183439869835	0.03316160219820589	-0.01484787611332314
Si	10.859900503172332	5.458542852048957	0.01653703313296023	14	-0.020782758523820954	-0.018759555747396427	-0.03316468752459008
Si	12.219305663417263	6.809510583960975	1.3819561050619882	14	0.013757727457580356	-0.01175046553414075	0.0026523522482647583
Si	13.594149522313906	8.155158003229802	0.0276786817265376	14	0.0275239395627172	0.013166373233946297	-0.03079978485111787
Si	14.947826370479818	9.521042194515674	1.3873221136419915	14	-0.04219955161959042	-0.03237304419651647	0.0166545918217912
Si	13.580734500863896	5.455572616156132	2.7439594057142687	14	0.009259321589449277	0.010172578199165875	-0.0008978299777957091
Si	14.941151499709681	6.8102449829454645	4.106661201400686	14	0.001986435970346406	-0.011478442591269082	-0.0092492942787007
Si	10.866118414574343	8.160608875692457	2.7528048334830086	14	-0.03032875835646674	0.029874701156928588	-0.0243586518030829
Si	12.224136376737459	9.525220108738548	4.11142663481115	14	0.018994040552593933	-0.016618596347309125	0.01051299254355348
Si	10.860439062427623	5.451117262316896	5.4629002860235945	14	-0.001808258371660144	-0.0016637622526678218	0.018130920496620222
Si	12.21791846533545	6.80748690675927	6.826613920310864	14	-0.004314571837740491	-0.016587228862403318	-0.016190764422036482
Si	13.580195941608606	8.162110313616303	5.469689396635764	14	-0.004854246844439573	0.014492292247546662	0.01853227003709534
Si	14.945003014383893	9.502437420241941	6.84001262178344	14	0.016713727244154604	0.05216129918250416	-0.00023602746838959367
Si	13.583476257072657	5.465625722254922	8.196986105390838	14	-0.006073722097785807	0.013269474557284236	0.0105793270608133
Si	14.951482045424832	6.809690103712739	9.55376374926904	14	0.031063323146433043	0.004440813108959762	-0.0028485275841920567
Si	10.857338266715335	8.17283253878985	8.179083090146728	14	0.032444520924416596	-0.021795516909427277	-0.019926580452211642
Si	12.239020196156446	9.518528917990976	9.519818196208192	14	0.013607317796351695	0.12277105036866684	-0.028802036017362805
Si	10.860373782517891	5.438485599783677	10.887497585011705	14	0.029842048119362707	-0.023650826508446136	-0.026419906938245617
Si	12.25687425146826	6.7640920867646575	12.232312685431443	14	-0.005495994732348534	-0.0329464006829095	0.10315968742870534
Si	13.58649545289778	8.168213985176282	10.898709409508244	14	0.006778462066038395	-0.01176974882404186	-0.024015409242843132
Si	14.950796606372643	9.517304919683495	12.256074572574038	14	0.03890827969926887	0.004734433336520673	-0.011669218606024072
Si	13.60580198620114	5.437294241431061	13.619102767809116	14	0.002269514666094709	-0.018053530226483764	-0.07501945392074864
Si	14.955610999715406	6.799310598065288	14.986439437086533	14	-0.013121893111907736	-0.021641764811282424	0.011059352424084947
Si	10.900455647093585	8.092032330518572	13.59302344387102	14	0.03276025265773078	0.053410856368096116	-0.17492309357201843
Si	12.236898599090145	9.465227871694472	14.94614541280421	14	-0.07600881524794162	-0.034403446067837413	0.0428433563917555
Si	10.840920369417637	10.757851684283157	16.312992482758634	14	0.09521831442636396	-0.1375258524694006	0.07672923895864711
Si	12.172091968703302	12.147807842282852	1.345977082812976	14	0.015143296114608157	-0.05906651674082584	-0.020912085121424402
Si	13.457061711875864	13.488396068547418	16.21647613621928	14	-0.33514100737598196	-0.3969596352514943	-0.016196163743208796
Si	0.031522036412032654	0.08098462401627213	16.286407239520113	14	0.08416307577079125	0.04429680222923521	0.054903383006442076
Si	13.576311786979527	10.876220480605433	2.7395203718524654	14	0.01234927596320324	0.0049280375671278236	-0.07398175581353686
Si	14.91193874010443	12.196245535304291	4.143348510670294	14	-0.255774842800991	-0.26956110952762496	0.22505116266734948
Si	10.899590688289631	13.583084577614263	2.7123802493812197	14	-0.09274825354529771	-0.12344108041509741	-0.05505662088352291
Si	12.453644219379145	14.890804369328567	3.9038038819072525	14	-0.2851587199523033	-0.10064077554655626	0.13792051713604334
Si	10.86952928985786	10.893927656120345	5.463357245391721	14	-0.01876649773176083	-0.02716552748108856	0.00189361906828906
Si	12.232002605860215	12.240570594012592	6.830187995368712	14	0.01934628198145422	-0.0426541230401926	0.03858174932361006
Si	13.589335128971141	13.590869206849852	5.476021547879807	14	0.017059283799182503	-0.11557606924076443	0.09188256238400384
Si	14.94410541562507	14.958532275675932	6.835899987470298	14	0.027263229483254187	-0.012168270148664811	0.00852475679948297
Si	13.603190789811842	10.888134064131595	8.183538443985963	14	-0.01717009843848089	-0.08172618214835489	-0.013429397308197448
Si	14.96352618877046	12.24819202347385	9.540903607051757	14	-0.02005205039183487	-0.010986333032992741	-0.010832580934847886
Si	10.876824319770456	13.620147246364834	8.158944237994282	14	-0.010083360844556737	-0.011756893297441121	0.006377883857159324
Si	12.226306933736062	14.972028897013105	9.534032896552421	14	0.013743072157255513	0.011975437249653708	-0.017758110225198753
Si	10.882291512210545	10.902038684904596	10.841165169079133	14	0.049344653304281935	-0.2407662726051586	0.020201174500403457
Si	12.240962273470986	12.233373483964595	12.209268877295905	14	-0.054076515535482456	0.05818745583186722	-0.00493163711457603
Si	13.599110795453567	13.617421810133505	10.884445749231714	14	0.02093882461675394	-0.021144513042365788	-0.0002460547791381712
Si	14.953538362581403	14.974721693289567	12.248061463654384	14	-0.026439704449210753	-0.003128263843024168	0.0121610710537684
Si	13.55889837105841	10.860977621682917	13.591848405495838	14	-0.01216544193281265	0.0182242516197416	0.006237244396147225
Si	14.938067023974824	12.20882823790521	14.933056790902862	14	0.11054390190817061	0.07788495080005366	0.06435553749490246
Si	10.876024640876235	13.619641327064407	13.519926264948168	14	0.02351352948435023	0.02741955268671919	-0.18950383184257819
Si	12.195804895913598	14.984546319704293	14.922106086045252	14	0.022388413796253427	0.08598881765862838	-0.11869327733091196
H	10.645292799927066	13.30704847931081	16.034443107930482	1	0.0840165227675428	0.18050624877472	0.19917093073580294
H	0.9638692911830892	0.9222582447219141	15.363039236332748	1	0.117009717567279	0.13519874504413457	-0.12780733146977288
H	7.698769834313161	11.210747378029117	12.633604610533938	1	-0.5098558414170683	0.69070173320458	0.048601346756227126
H	0.9237237786954065	12.65460842149034	3.807940334465223	1	-0.13260707088142532	-0.1129221743293076	0.13961050466297664
H	9.169150841103171	10.497580684180079	13.30378448382419	1	-0.1338851673360709	-0.3719450944812416	-0.26152949072854637
H	13.0606657800033	0.6226903709576738	2.1408219997191917	1	0.27124261240700187	-0.4355223583957353	0.0716016836186758
H	14.126017586858634	0.5735541829020964	3.516351297668025	1	-0.17449140498876556	-0.2948993524576843	-0.19167898694342347
H	7.5667738568342475	10.53149359728606	14.45460401249667	1	-0.3192770304401363	-0.506653786851356	0.09817919931304649
H	14.286736724619804	14.337051215046051	0.9539940728383204	1	-0.05423206740735142	-0.04071062452869267	-0.32772336852735473
