222
config_type=interstitial dft_energy=-23324.547152737618 dft_virial="37.459040158748465 -1.8278542928517791 -0.8420900781478722 -1.8278542928517794 41.59366253297215 7.299444326694114 -0.8420900781478722 7.299444326694114 42.423779766407016" pbc="T T T" Lattice="16.3199774331 0.0 0.0 0.0 16.3199774331 0.0 0.0 0.0 16.3199774331" Properties=species:S:1:pos:R:3:Z:I:1:dft_force:R:3
Si	15.538919633129268	14.462796641168087	14.701949590472733	14	-0.312483655963241	0.32138893635010596	0.28247191489274853
Si	0.032896178511899674	0.17777677817424492	0.15402794701359782	14	0.11375726933729167	-0.02347419157295196	-0.016728382544479448
Si	1.4283946008478743	1.4855047298772646	1.4730509550980657	14	-0.13374967008569913	-0.03612531530074058	0.029998628433359726
Si	2.7469459615845255	2.753979871858192	0.00380745073514223	14	-0.02109746181500708	0.02555164467163161	-0.009496120389434915
Si	4.089818984689726	4.1035604056883965	1.375942193377891	14	0.012579132778824477	0.013147347054577202	0.005412176698911706
Si	2.740369010678987	0.01905194165540094	2.7545673910457835	14	-0.0050344813273819535	0.0005008513163648457	-0.01304450284177128
Si	4.094600738077625	1.3737292044379628	4.112275273637671	14	0.00995300580482523	0.004701266077890762	0.003717046961338078
Si	16.303526895847437	2.7715075276213414	2.77323744522925	14	0.05703740042216499	0.05001802578762871	0.049803595603928365
Si	1.3627295396480532	4.106302161897157	4.110137356593936	14	-0.04980565248818448	0.007885065795830128	0.01115628309465453
Si	0.0009122867385102899	0.01748685581956665	5.4634225253014534	14	9.435956524943451e-05	-5.090788533893197e-05	-0.01571588126940513
Si	1.3605785666223704	1.3754933939984808	6.817376813083729	14	-0.015542845881359168	0.0031123229900392496	0.006770491639545936
Si	2.7178311218438753	2.731605182797412	5.4532225394057665	14	-0.010332500950079086	-0.00232196521462573	-0.0014986972911143154
Si	4.077268922043673	4.093376739770142	6.802411393777576	14	-0.003666910407595191	-0.0007237661476216843	-0.003228536950509943
Si	2.7180922414828053	0.00940683499243884	8.16994390278419	14	0.02835132125474085	0.026870107479803545	0.011785946787558793
Si	4.071312130280591	1.3621420204604615	9.537052092377545	14	-0.007955256971070171	-0.0018180285718767068	-0.011401052321132626
Si	16.31224176379671	2.7216336765857876	8.178218131342772	14	0.03947932219087375	0.0007487058692271206	-0.0034383391446340264
Si	1.3601852551662328	4.091695782094533	9.515346522391523	14	-0.02054673105543136	0.00026842339542345944	0.010134268729895668
Si	0.03307733026140708	0.04626876802058181	10.882340472142845	14	0.008890110865476013	-0.07819245499634338	0.025096559029965403
Si	1.356064460864375	1.4114120323309904	12.255209613770083	14	0.003777467936361558	-0.03215732846015606	-0.012467546807930049
Si	2.7205565580752027	2.741576689009036	10.881867192797284	14	0.039200357263637686	0.01910922607093657	-0.024541200280813417
Si	4.077823801276398	4.085575790557121	12.253414416252442	14	-0.014124367076233473	0.01301570646218562	0.00287758107430973
Si	2.7106176918184453	0.040618791833242594	13.5922727249091	14	-0.009118425017905161	-0.04455956919295435	-0.019000468315894303
Si	4.089264105457001	1.37110984805995	14.96478282703281	14	0.03525293926561434	-0.047898663672230654	0.017436464949648227
Si	16.311637924631686	2.7510422759202338	13.617160690494575	14	-0.0038787694859753917	-0.02209556490028856	0.004960690604693703
Si	1.3616834290945914	4.092364901169289	14.971555617667546	14	0.045091016662628956	0.027572533453268	0.025387093931142135
Si	0.0009090227430236699	5.440231837369018	0.01050843346917309	14	-0.06311215096207885	0.013927677519242143	0.025036652276005947
Si	1.3445262368191733	6.812089140395405	1.3596630158883738	14	0.125656858980001	-0.019889556535601507	0.033788437675258
Si	2.740156850972356	8.145382336747376	16.31870447486022	14	0.01289280762788254	0.01691195946433802	0.0012940373076305283
Si	4.078003321028161	9.550548713714718	1.349714357645156	14	0.0063262046402243486	-0.1365323773736954	0.03599161782409288
Si	2.7092141737591984	5.4525371003535765	2.724783432230376	14	-0.011100747219739332	-0.015397321320238784	-0.02033770019290332
Si	4.115343429395095	6.779987744784497	4.0632337414512065	14	-0.028814377322899525	0.025916741627092635	-0.06638336826090324
Si	16.227182041415393	8.098886721040474	2.7284880671076897	14	-0.11326310289475923	0.007245374792177287	-0.029753602096349616
Si	1.4352702073404393	9.44879365441934	3.8700378485981686	14	0.23159076904914613	-0.23690112997737997	0.03047299736492704
Si	-0.00060220716728139	5.428138734091092	5.4771965862549905	14	0.010421204083624194	-0.015593753766698101	0.015088531571289001
Si	1.3691775627318712	6.81169746093701	6.771599276383884	14	-0.06179240260124683	-0.040741992013598474	0.0021088205835854542
Si	2.746015722870839	8.144223618349626	5.388742308567589	14	0.10805712884252339	-0.12565505920627693	0.04899806830712597
Si	4.0721607691071116	9.52729274587255	6.77021207830207	14	0.04789557834584648	0.023498874184025385	0.015033767027969849
Si	2.719414159654886	5.457416773606073	8.156496241379317	14	0.00028436424840837753	0.006109974682799895	-0.011610597404724695
Si	4.082948274190391	6.8033742724461295	9.520813714831611	14	0.0022255487651201772	0.0024394647277564976	-0.006737067270384011
Si	16.303902255328396	8.127299801751501	8.129078679291709	14	0.04548516710820765	-0.023359520275673357	-0.002430980080200008
Si	1.388187072445946	9.449821812997627	9.442657342904495	14	-0.06009058798984083	0.03604869636220017	0.06143501896174626
Si	0.00489762522767331	5.437930720550951	10.88589822722326	14	0.012176497685689288	-0.006694386922069554	-0.0007713315960444237
Si	1.367729980733555	6.79279892706948	12.243606109815149	14	-0.0157917288763495	-0.011413136516137323	-0.014420301298582518
Si	2.72427751292995	8.150555769593668	10.880202555099109	14	0.00020131754656759458	0.009510261468695729	-0.0022741426556709757
Si	4.114592710433172	9.491829434910425	12.233014444461068	14	0.04107109349457743	-0.007896378659238779	-0.016213390148853785
Si	2.7273456686873727	5.444262871794994	13.614892213631375	14	0.01027825062782396	0.008181257128711187	-0.009909554124914725
Si	4.108570638760358	6.783888219391008	14.971930977148507	14	-0.04930480117181963	0.03784872719683584	0.048463021290003155
Si	16.303216816276205	8.14104122275017	13.582268578742609	14	0.06316717261593001	0.004907211614034623	-0.02071642400656113
Si	1.4083275565961346	9.459564839525186	14.900596355788426	14	-0.04672932497262731	0.08167398871035589	-0.09940304544543697
Si	0.3123398881033843	10.571493861974588	0.3319711889576603	14	-0.03881083480763525	0.12521025798589128	0.15850144389223267
Si	1.4019529734107656	12.339730776896108	1.4202199241516344	14	-0.08480379521657214	-0.02588845946857101	-0.13586157599566875
Si	2.7471744412685895	13.63197923000383	0.017015208471750063	14	-0.04270631647819161	0.02317517202421874	0.05682271312793262
Si	4.097505694060716	14.983306001419377	1.385734179837751	14	0.03928340396547847	0.023791465969458234	-0.013045788394431351
Si	2.785542708213807	10.974956344075688	2.7278352680103657	14	0.014408217103577821	0.141717268362306	-0.04097956214518016
Si	4.123682937863409	12.271203191654521	4.1431363509636645	14	0.0001586371982531365	-0.018142490470560886	-0.02025696748585067
Si	16.315293599576698	13.637201622782422	2.7614544215225516	14	0.04510952862093402	0.09971029253119468	-0.09356226548965658
Si	1.3669694697851726	14.989638152663419	4.105763602641865	14	-0.020050764839174794	0.021679302948956588	0.048501073648741344
Si	16.243469378893625	10.95813044734216	5.563170227372561	14	-0.30741575026669715	0.3073309037911323	0.26447854853075625
Si	1.3697487619420294	12.300024271801375	6.847242371786302	14	0.05168795869306488	-0.09167378863200781	-0.003935848024082679
Si	2.7248487121401084	13.626120358105348	5.461317248212584	14	0.04326578899585583	0.034111882724532624	-0.05227185671127052
Si	4.088170666968983	14.976174171281112	6.81869873125581	14	-0.0238793977714073	-0.006045439939264178	0.01452057440606829
Si	2.7262685501767883	10.880382074850873	8.144158338439892	14	0.006201763142729182	-0.018848258880941538	0.017592531042581218
Si	4.108456398918327	12.23156196646952	9.498031026335003	14	0.011054981545040695	-0.01729556837810411	-0.03827990155902467
Si	16.300670899796643	13.624945319730166	8.188679236877391	14	-0.08689410384185255	0.01101667207577049	-0.00774776877173422
Si	1.3583639456846988	14.97395465435021	9.525987147677904	14	0.028060529243032106	0.006733467722935804	0.015372638709165365
Si	0.02259827275161357	10.779736774020945	10.772115344559687	14	0.011644793105482665	0.037276142042038864	0.07060203787020221
Si	1.5332080239142156	12.05246653411868	12.047472621024152	14	0.1497807688673544	0.05067314342320244	0.054724434076159775
Si	2.771099528185514	13.621632364311246	10.830997823138311	14	-0.04988432831098102	0.0035550673261687486	0.013384145854562839
Si	4.0725198086106404	14.964815466987675	12.26129696535263	14	0.046963809777824814	0.04083172358927164	0.03702623060492047
Si	2.7909609407215967	10.846534441654622	13.608984381800592	14	-0.11931059971827951	0.0005242483747781933	-0.03782610147001853
Si	4.091565222275068	12.2679391961679	14.958809715292295	14	-0.01603007033952723	-0.008997583067858203	0.01533072969244695
Si	16.017290811648294	13.03608789398905	12.991762835280753	14	0.43990403608233164	-0.06616456719815866	-0.3757683280923018
Si	1.429918886740126	15.15456784460233	15.148284653290585	14	-0.11282627210086606	-0.22228593889553022	-0.21848635945341538
Si	5.446563988613061	0.01469613967850655	0.00932197110978672	14	-0.0013804264463875037	-0.0037692403993370843	0.008902709281544739
Si	6.795475403368509	1.3741012999234372	1.376278384913013	14	-0.0013608860459543783	0.006721126417399094	-0.010284164170060301
Si	8.145937215980101	2.7375782945379266	0.01875002207288859	14	0.016909645469549886	0.0036142027485321546	-0.004805138732824745
Si	9.51038524925186	4.090422823854751	1.3750119546642043	14	-0.005684970973379417	0.002182868416805719	-0.006374798530775146
Si	8.154031924786919	0.016031113832534128	2.7371050151923666	14	-0.0007793020225368827	-0.001152369404490369	0.0013871113202198885
Si	9.518528917990976	1.3664113265569606	4.095335137062114	14	-0.003116179648019472	0.00469792364097457	-0.02592316939039301
Si	5.4365108825142725	2.7310503035646865	2.7356525372008207	14	-2.6482384797525215e-05	-0.003512129867322276	-0.005273594122155724
Si	6.810261302922898	4.079929078365268	4.086979308616367	14	-0.00014860988750455895	0.003572293731813741	-0.014693352683582241
Si	5.450954062542565	0.01513841106694356	5.467045560291602	14	-0.0031845710495354103	-0.005973963211364062	-0.00878083888936972
Si	6.806507708113284	1.3745141953524946	6.823186725049913	14	-0.017530053183301617	-0.014401018008681403	-0.013221651998329483
Si	8.162028713729137	2.724603912478612	5.453043019654003	14	0.010105729460842023	0.0010531247391326532	0.019612391382089547
Si	9.504395817533911	4.077334201953405	6.831134554059832	14	0.011813714725016394	0.013615802443908183	-0.007670121391065749
Si	8.143244419703638	16.30512625363588	8.172277659557125	14	-0.01484607633959904	-0.0024188958851953128	0.01420869933073433
Si	9.539385849150477	1.303344405764489	9.517304919683495	14	0.0637729250293569	-0.036718726408630754	-0.042221406014811676
Si	5.414658432731351	2.7181901613474038	8.163122152217154	14	-0.005613237134947286	-0.017758624446262784	0.022273999609506837
Si	6.740477079418962	4.106269521942291	9.506974373968342	14	-0.05701426047428365	0.061277667316153195	-0.05854355391870773
Si	5.4375880010248565	0.01522980294056892	10.903735962557638	14	0.037824815917358465	0.04856483706068102	-0.09901198032624245
Si	6.822028006652163	1.3957334300110114	12.223467257662703	14	-0.06825693270769516	-0.06475688703537757	0.06780724638720127
Si	8.265954330023117	2.8339314413029486	10.785008126731835	14	-0.16588051616105765	-0.18000745434261126	0.17422478136706623
Si	9.541376886397318	4.102581207042411	12.316409529144208	14	0.06581695375887464	0.04617062378655913	0.035716766665369055
Si	8.156887920837711	0.025486908757272272	13.598523276265976	14	0.08444461180334747	0.025268051754819276	-0.03480196739246037
Si	9.496562228366024	1.3800009717655028	14.982555282457456	14	0.02222000639778373	0.010589354371561879	-0.017695118144855124
Si	5.451916941211119	2.728896066543517	13.601003912835807	14	0.02985721764075158	0.08038895027134589	-0.054962775539337504
Si	6.792896846934079	4.0875341878490925	14.977055450062501	14	0.003978014151333108	-0.003033390056710704	0.038389687756194994
Si	5.460289089634299	5.449566864460752	0.025393884885903602	14	0.0030079361140412375	-0.011467901059456477	-0.048829146687592244
Si	6.813198898860856	6.823741604282638	1.3698532097976013	14	-0.01880146476411484	-0.008128806580180168	0.001919330121490541
Si	8.165129509441426	8.181008847483833	0.00612325553289912	14	-0.011287923687046111	-0.0018766497731760833	0.0037350446985791146
Si	9.521450193951502	9.533167937748468	1.3694680583301801	14	0.02000191383809198	0.02253188147311769	0.01914316466116252
Si	8.159025837881448	5.4547239773296115	2.733759419818581	14	0.006221046432630292	0.00020080332550356496	-0.00295779956029835
Si	9.51996507600509	6.803961791633721	4.0975709739704484	14	-0.00327224574095246	-0.0024821450760709554	0.0076084148633821964
Si	5.440574556895115	8.182967244775805	2.7147629660864525	14	0.02038706541505016	0.0029786255133915493	-0.030254967633778485
Si	6.807650106533602	9.53008346201361	4.076632442923781	14	0.007049713677314018	0.006322347982244127	0.002499114371183933
Si	5.455735815930463	5.434062885899307	5.443610072697671	14	-0.022131046153706608	0.026211133186249597	0.04700031947337092
Si	6.7945125246999565	6.818470251571746	6.793647565896001	14	0.03166727578613583	-0.015255139196034597	0.01900458208440654
Si	8.159286957520376	8.172440859331454	5.441667995383132	14	-0.012792277409864753	0.007322765062313744	0.001643707631170667
Si	9.514759003203931	9.519736596321026	6.815597935543522	14	-0.011627052478773641	-0.006577658740534831	0.0003614974080128199
Si	8.130955476696515	5.449811664122248	8.168344544995746	14	-0.0032599044354157496	0.022007890208871513	-0.013205968255876577
Si	9.50411837791755	6.7866299755997685	9.541964405584908	14	0.009021237236803564	0.019486664331934304	-0.017479916629558733
Si	5.42381394007132	8.169519583370931	8.149968250406076	14	-0.0022797990873753018	-0.019541685985785474	-0.012064397493730832
Si	6.793174286550442	9.520095635824553	9.512408926453563	14	-0.0020106043603557978	0.013826890190692338	0.002002633933863339
Si	5.424597298988109	5.453026699676569	10.898464609846748	14	-0.0012364445484592112	-0.014405645998257671	0.01868113703513191
Si	6.814994096378497	6.793109006640709	12.242888030808093	14	-0.01594496675343033	0.03226865732051846	0.015555701407959905
Si	8.150735289345432	8.1669410269365	10.880055675302211	14	0.005362554366232848	-0.02409177107085153	-0.012665264807049438
Si	9.499728303988046	9.52412667025053	12.24904066230037	14	-0.00047025516305508364	-0.017539566272986168	0.004240524004520227
Si	8.152856886411735	5.450774542790802	13.634182426957299	14	-0.01870144876716108	-0.015848807414456788	0.004153363534167206
Si	9.517696599141887	6.8105387425392605	14.976761690468706	14	-0.0034465666816585	-0.005176663451586142	0.005208030936491949
Si	5.462361726768302	8.142624260561181	13.606862784734291	14	-0.016921215443490553	-0.003150889569841471	0.002861383110792797
Si	6.797515400547647	9.528875783683562	14.96399946811602	14	-0.0055816125395094646	-0.029637902356942948	-0.006340345719485162
Si	5.4470046280037545	10.900945246416578	-0.00218034898506216	14	-0.010785015486425149	0.030923969238081023	0.05598401857250032
Si	6.796993161269787	12.25613985248377	1.3718067110963434	14	-0.014285575379806757	0.027064740152538756	-0.0011407994305497025
Si	8.152432566998474	13.617715569727302	0.01260718256706975	14	0.041671960807896036	-0.009192729961657441	-0.0005972677658703987
Si	9.506403174758184	14.970609058976425	1.382669288075815	14	-0.017379129301008926	0.009025608115847817	0.021909673985641854
Si	8.161392234609247	10.895265894269858	2.7222048757959465	14	0.004567054380179032	-0.007847784768687981	-0.007197295122690518
Si	9.515395482323822	12.247424984534494	4.090161704215821	14	0.00464341620818743	-0.022143387459243314	0.0023163087829214044
Si	5.453157259496034	13.621452844559482	2.744742764631057	14	-0.026959324834412685	-0.02225651609332983	-0.01672272611277512
Si	6.803749631927091	14.98079272489468	4.099806810878784	14	0.006246243264767743	-0.000695998210164085	-0.004207356745890316
Si	5.4719578734989645	10.880839034218997	5.458542852048957	14	0.016850252936654465	0.03917310354724412	0.009837820286482595
Si	6.823317284869378	12.246608985662839	6.8091678644348805	14	0.006355258130342022	-0.02827598786886051	0.014012009773743003
Si	8.160413035963261	13.609049661710326	5.441194716037572	14	0.0008073270705264967	0.0037993223315828167	-0.002426352090623742
Si	9.506843814148878	14.966969704008845	6.803439552355862	14	-0.0004987944321087274	-0.016875706879323934	-0.004151049539379073
Si	8.165390629080356	10.883042231172466	8.17483989601412	14	0.006268868991585046	-0.005149409735192572	0.0019329569796873258
Si	9.518218838419747	12.24066851387719	9.537835451294335	14	0.0018046588242119368	0.01789103637025041	-0.01187233592631577
Si	5.454936137036242	13.600954952903509	8.151518648262222	14	-0.008880597775791465	0.017805675673621492	0.019063974617301964
Si	6.781880862166737	14.95962571416395	9.537590651632838	14	0.010795042797173724	-0.006633451725982044	-0.005870604777494109
Si	5.448946705318295	10.879337596295153	10.880496314692904	14	0.016863622684319235	-0.014772028506378772	0.006382254736203577
Si	6.799294278087855	12.245074907784128	12.244226268957606	14	-0.017712344550500116	-0.002877323963777715	-0.01500034265880792
Si	8.153134326028098	13.604512707983924	10.885914547200693	14	0.008427054797317346	0.013022391336018003	-0.013685479398084194
Si	9.504901736834338	14.962546990124475	12.249350741871599	14	0.017134102963998813	0.0269613817186688	-0.01409814180196796
Si	8.151290168578157	10.888019824289563	13.608478462500168	14	0.010442801368313437	0.0029860817188199786	0.011111031641019925
Si	9.501082862114993	12.247163864895564	14.97620681123598	14	0.01187670680536002	-0.0023127092354731974	0.024030064543167976
Si	5.454413897758383	13.617438130110939	13.603713029089702	14	-0.028197569156596	0.00035892630269267184	-0.0029385162703972397
Si	6.805805949083661	14.980466325346018	14.964554347348745	14	-0.08641690669443305	0.02828550095854506	0.0004905668950842535
Si	10.839467891426091	0.04843606102369749	0.048331613168125655	14	-0.0013290043399845422	0.012650352396192579	0.0054821107636197335
Si	12.237551398187469	1.3887354236876979	1.3845575094648244	14	-0.05162290972846515	0.0008147832759549262	0.018482390593884467
Si	13.589351448948575	2.755252830097974	0.02690021880297873	14	-0.018387773918103017	-0.013038846410066952	0.033525156490474835
Si	14.953293562919907	4.105110803544541	1.3832812872295561	14	0.029576967160855443	-0.011960524838796848	0.03622687396088644
Si	13.575969067453432	0.02654607529268046	2.759904023666407	14	-0.05031755955742597	0.011962324612520952	-0.02098484740198459
Si	14.956998197797219	1.371251831863618	4.103201366184868	14	0.09027819266423144	0.06353586911883925	0.0054021493881631286
Si	10.867554572588455	2.7351139779455282	2.7396019717396305	14	0.00863917098622956	0.005786529633525266	0.004454182856624532
Si	12.223548857549869	4.086799788864603	4.1027117668618756	14	0.004201957424718006	-0.004728005573220302	0.00675892166560527
Si	10.87421312338116	0.01270673442941166	5.459701570446707	14	0.016848453162930363	-0.009740632505380998	0.05477457062990266
Si	12.243475549995685	1.3732934610404988	6.805071550099172	14	-0.008902709281544739	0.02402543655359171	0.01873615868898308
Si	13.597266638003628	2.732763901195162	5.450089103738612	14	-0.034352538182498484	-0.022009947093127633	-0.002111905909969632
Si	14.951090365966438	4.074902525315872	6.823496804621142	14	0.013222937550989557	-0.013235535967058279	0.008170972707430595
Si	13.594084242404174	0.00809144481133098	8.163546471630417	14	-0.018618144954788286	-0.006857394999366943	-0.005543817291303288
Si	14.94772845061522	1.365556159739466	9.532890498132105	14	-0.03503928041351004	0.0017282969962035385	-0.010770103075568287
Si	10.870557448436147	2.7037633012965436	8.176830933260959	14	0.019842248197710785	0.0010767789080780154	-0.01845539398802291
Si	12.215747908336848	4.071426370122623	9.545097841252062	14	0.01090817143126024	0.005241969526717904	-0.017559106673419294
Si	10.892148778580138	16.308112809506135	10.909676434343288	14	-0.02688579122225645	-0.01859269101211882	0.019410045393393895
Si	12.237665638029501	1.379796972047589	12.25966496760932	14	0.04552707612492607	-0.017012746792887827	-0.08987761445535238
Si	13.59707079827443	2.7274599085294042	10.895869733434884	14	-0.017048742267369896	0.020222257564028668	-0.007685290912454624
Si	14.95342412273937	4.094192738641797	12.248632662864544	14	-0.019255007742588964	-0.003534498483607564	-0.015215544174104319
Si	13.608217342861238	0.02070515536937397	13.64998016511254	14	-0.0009975888642174548	0.01888888234499988	0.07902523600953935
Si	14.967410343399537	1.4085429802982516	15.006774128968175	14	0.026534835346056232	-0.046657076913131146	-0.015720766369513414
Si	10.888786863228917	2.717455762362914	13.642211855854386	14	-0.042357417486247516	0.018875512597335106	0.05770691624753154
Si	12.236996518954742	4.102581207042411	14.98004200593276	14	-0.01466532763559263	0.008360720280057523	-0.01877189705293314
Si	10.86889281073797	5.448571345837333	0.019415877152159068	14	0.004421015597994621	-0.005745134837870883	0.011541177561080699
Si	12.228640690508996	6.800191876846675	1.3817292573756683	14	-0.0034933607984851955	-0.012797419620505047	-0.030482253344079578
Si	13.566454520609934	8.138250506609111	16.305452653184542	14	-0.038748614058887666	0.011410565410817175	0.09238778457941293
Si	14.86066137100963	9.4724902616522	1.4107282252765436	14	-0.07323690660228997	0.09801130613564081	-0.1300719610357593
Si	13.583084577614263	5.4447198311631215	2.749557157973822	14	-0.01724620315595727	0.020268537459791337	-0.02428768929624681
Si	14.93377486990992	6.767600881912774	4.150300821056795	14	0.015309903739353753	-0.00867928022922387	-0.025092445261453163
Si	10.871601926991865	8.166255587884311	2.732323261804468	14	-0.0002727942744677112	0.0014660442535484345	-0.01867779459821572
Si	12.219648382943358	9.521270674199737	4.101210328938031	14	-0.017712858771564147	0.024150392272150906	0.012252088182101642
Si	10.86551457540932	5.440509276985382	5.469134517403039	14	-0.0030256767407502595	-0.0012315594483509296	-0.015469826490266965
Si	12.22345093768527	6.79859251905823	6.826189600897603	14	-0.006446532369207279	0.013420655550108943	0.02043617352666499
Si	13.572394992395584	8.160918955263686	5.462916606001028	14	-0.04730370990114839	-0.031967323776997104	-0.04785186955540396
Si	14.897854599579667	9.512784285934524	6.845414534313795	14	0.10837388901796562	-0.05798356717997948	0.009183731093036922
Si	13.576899306167117	5.423144820996563	8.17299573856418	14	0.0021116487994376175	-0.004020437389115551	0.018692964119604593
Si	14.959136114840955	6.771729836203349	9.51154396764961	14	0.002102907041349114	0.023177743129538887	-0.021882420269248283
Si	10.862593299448793	8.15466840390681	8.182869324911206	14	-0.01827773061040068	0.0029986801348887045	0.00409628499605992
Si	12.219436223236727	9.520405715395782	9.539679608744272	14	0.0007749311434926309	-0.03235427512767939	0.0039021665443887393
Si	10.871406087262667	5.440656156782279	10.913870668543593	14	0.022929888576676615	0.01993712198402425	0.00540060672497104
Si	12.243720349657181	6.813672178206415	12.243785629566913	14	-0.031898675264949154	-0.025696397901155944	-0.009447012277820088
Si	13.59858855617571	8.137352907850289	10.854645470438873	14	-0.03407537302898652	0.05206616828565867	0.02155383300933336
Si	14.97194729712594	9.483114566961149	12.18960330448902	14	-0.0011366856620374658	-0.019505947621835416	0.03672361150873905
Si	13.593643603013481	5.451166222249196	13.606422145343597	14	-0.005946709494970491	-0.002792220377680814	0.006178366084315834
Si	14.960115313486943	6.792945806866379	14.96742666337697	14	-0.009522859884764456	0.0302673089393152	0.0012906948707143357
Si	10.859019224390945	8.157654959777066	13.59491656125326	14	0.015983533333232547	-0.0029506004654019356	-0.014769971622122655
Si	12.202202327067374	9.502894379610066	14.970103139675999	14	0.07605278114891614	0.03637239852200682	-0.04279090584322448
Si	10.875159682072281	10.898513569779047	0.0068641825083618595	14	-0.008187427781479543	-0.045398263748386646	0.02439618994075706
Si	12.211047754836112	12.254850574266554	1.3959455897176416	14	0.09002699567445296	0.01390068091338059	-0.026887848106512565
Si	13.532329447797323	13.697944578788421	0.022475872920865322	14	0.22262815301364192	0.21792740115681522	0.13106569324199652
Si	14.982702162254352	15.034387530784981	1.4103430738091225	14	-0.08660254049854774	-0.19979262400221476	0.07689790346764883
Si	13.567596919030253	10.895184294382695	2.7496550778384203	14	-0.053932276527022156	-0.10401278017393047	-0.06720483641069057
Si	14.950437566869114	12.250117780810955	4.078280760644525	14	0.029203642668369938	-0.024596479045196597	-0.2697071483098094
Si	10.869137610399466	13.62164868428868	2.744351085172663	14	-0.028617687765908194	0.0356550601376855	0.037294139779279895
Si	12.231643566356686	14.971147618231718	4.110169996548802	14	-0.017633668727703583	-0.03877098267517296	-0.12402317865957893
Si	10.86499233613146	10.882911671353003	5.4542670179614845	14	0.0006859708994155075	-0.00837229025399819	0.00826430383055197
Si	12.225001335541414	12.245433947287655	6.804288191182383	14	-0.015410691067903557	0.007353104105091492	0.022525196599285306
Si	13.596728078748336	13.60402310866093	5.455458376314101	14	0.02154097748273262	-0.017472203313598285	0.1753444977339907
Si	14.955513079850808	14.971457697802947	6.808156025834028	14	0.011144456010181849	0.014642187687711295	0.027538851973574058
Si	13.56585068144491	10.895983973276916	8.187243078863276	14	-0.04669152972442113	0.04242555177723144	0.015994331975577168
Si	14.958483315743633	12.234401642542881	9.530409861562275	14	0.005513221137993526	0.03633203216848049	-0.03262758362321114
Si	10.854580190529141	13.600187913964152	8.155859762259425	14	0.0013282330083884974	-0.009558598248714512	-0.0060035309225457655
Si	12.207620559575163	14.9702010595406	9.494620151051485	14	0.04436519363075115	0.009267806237005766	0.034714035590511304
Si	10.869088650467168	10.88194879268445	10.908550355900404	14	0.0289007664616565	0.009464238683465078	-0.04112585803789658
Si	12.225164535315745	12.253316496387843	12.266274558469725	14	-0.019940721531472454	-0.032723228741120644	0.059633959684982536
Si	13.546756307848185	13.599714634618593	10.85337251219909	14	0.08494726289343642	0.031642593175062406	-0.0372594298574579
Si	14.907108026784234	15.029524177509916	12.164927498610172	14	-0.055437401581436827	0.12067714219593824	-0.06571873753564497
Si	13.58032650142807	10.80424938012546	13.568151798262978	14	-0.006040554839155897	-0.2003883491048931	-0.07310166646245018
Si	15.146228336134016	11.921188635646823	15.020760349628342	14	-0.1647597713520051	0.2955513847668738	0.44011178139219953
Si	10.847268840639112	13.606291585524133	13.616948530787948	14	0.02691870137035434	0.022372987164332538	0.013281044531224901
Si	12.1444785668865	15.040115842864	14.960490672967904	14	0.1918358243679525	-0.20330218276421688	0.007430494375227947
H	13.57037131519388	12.53258395022305	15.137790907801103	1	0.005388779640498359	-0.029908639747154544	-0.05764161017239978
H	14.889743570795416	12.286805090080565	12.390844946216577	1	-0.351359539735476	-0.30541131655910975	-0.42750205246006534
H	9.19614408377752	3.774043741336674	9.85705420988577	1	0.07633945939211266	0.08303667453003438	-0.0875515354722144
H	1.0685293064615593	9.811015553546994	5.418901626863956	1	0.009791797501251944	-0.006345230819593444	-0.08276208048184255
H	1.2053870052177926	9.678154617264127	1.2854740304752443	1	0.19125295479187493	-0.20888868040383465	0.17707433739338632
