224
config_type=interstitial dft_energy=-23353.58340032857 dft_virial="10.541911691348684 -2.8071374044012782 -2.0881871051445473 -2.8071374044012773 12.056554175737862 2.229553737020871 -2.0881871051445473 2.229553737020871 10.028952769968882" pbc="T T T" Lattice="16.3852778749 0.0 0.0 0.0 16.3852778749 0.0 0.0 0.0 16.3852778749" Properties=species:S:1:pos:R:3:Z:I:1:dft_force:R:3
Si	14.820434682013426	14.792038995456226	15.26231285574373	14	-0.1197494873964288	-0.300832177983926	-0.2353618092222073
Si	16.07682501890501	0.39559795637264816	0.43058871727449716	14	0.45517922989986337	-0.1620361994863722	-0.03813026322939206
Si	1.4956219479762722	1.4720107625585415	1.4495793171478033	14	-0.06447509389228935	-0.029926123263331553	-0.06859760416261479
Si	2.7832852262198884	2.7672931950139867	16.357898075571043	14	-0.05794654326336935	-0.06061792169100321	0.07589285839800293
Si	4.117390936072122	4.117620329962371	1.3688310292525085	14	-0.002988652824140127	0.02705419862072615	-0.04127652480965727
Si	2.7743716350559433	16.3734640895522	2.75275945353895	14	-0.05618765011385604	0.10312857705433155	-0.06051867702564549
Si	4.118062732464993	1.3778101615279539	4.1035781468235815	14	-0.017364216890152065	-0.028395544266247397	-0.015229942363897143
Si	0.034423830287377416	2.765163108890249	2.7771571322946764	14	0.09323496378240173	-0.017623384306422994	0.08230082418740799
Si	1.3917605871106438	4.127975825579307	4.14544253179395	14	-0.05953008703004854	0.03937827775179193	-0.014180674282744716
Si	0.01437971986301224	0.0019596792338380403	5.460197228475926	14	-0.03501562624456467	-0.0015130954809071445	-0.062324621402517495
Si	1.3748477032881719	1.3730043595272456	6.817864967912266	14	-0.004104512533084394	0.014046976806097013	-0.01480930953352092
Si	2.762901940543513	2.741617464584018	5.4830874616671625	14	0.028503273579161603	-0.09512061242419832	0.023256933173399448
Si	4.142312943719845	4.077902416393613	6.859205023990638	14	-0.06137511220778681	0.03900803858569061	-0.05618585034013194
Si	2.72323318280838	16.372841448992954	8.162866887551308	14	0.0975353945408814	0.07461039106431307	0.0482676172856719
Si	4.079065771122731	1.3377530727071858	9.552535074677326	14	-0.2995545957503444	-0.013406771581380143	0.017938858929205163
Si	0.012031709543539071	2.750006726855967	8.170617123986135	14	0.006636022831302191	-0.0028909508219745	0.010190833046938925
Si	1.3656899714838902	4.122290134156717	9.536608584582924	14	-0.02303890344225089	0.016349658730821635	-0.03816523026174607
Si	0.03567730404480726	0.027887742943079802	10.868567823033546	14	-0.061875449303087623	-0.04818637035755522	0.008500845520005594
Si	1.434152578028585	1.3935826300103324	12.184731653612763	14	-0.03538303719481384	-0.02815694569253766	0.0449496058700208
Si	2.760968477754275	2.780794663982904	10.865618473016063	14	0.15811500676261442	-0.06283909957707913	-0.05200189065265498
Si	4.11273751715565	4.105986782671191	12.276472824434327	14	-0.014104826675800345	0.04241603868754689	0.04084894999491663
Si	2.7292465797884686	0.042537819891027895	13.613003555412044	14	-0.0020412005136655597	-0.03455925505023839	0.01099378923842117
Si	4.10869035352055	1.3653999520655045	15.001131526417824	14	0.03167447488103225	0.07442887102871064	0.03074502030779871
Si	0.12154599127600821	2.784219187058758	13.529504179361554	14	0.03910008415615191	-0.14454934087244908	-0.0038306898164886228
Si	1.3843052856775642	4.114425200776766	15.01546864455836	14	0.04428188981837835	-0.01536492539320492	0.05587243260160589
Si	0.017578126104192723	5.48344793778041	0.00011305841733681001	14	0.00871501859317393	-0.009419501450894503	-0.015849064524988802
Si	1.3919998121676171	6.82951490048132	1.3700582865653386	14	-0.02562286428899971	0.008952845835287626	-0.0033424369161925024
Si	2.756249517726304	8.184053051843552	16.38496655462038	14	0.022489458235335245	-0.00880115062139889	0.006804173119239877
Si	4.116620828012001	9.54044273960565	1.372190011216863	14	-0.007505056429512242	-0.0014413616424750132	0.0006875135626075963
Si	2.7425514254228873	5.463998612942904	2.7427644340352613	14	0.031081835104738113	-0.013845916370061436	0.0024188958851953128
Si	4.108133254072804	6.8237800532251045	4.108968903244423	14	-0.07266740677387716	-0.011870021931527636	-0.013840517048889124
Si	0.018408859692450152	8.186052055744291	2.736193937607426	14	-0.00461770515498595	0.0009351110049378563	0.0017264972224794353
Si	1.3838268355636172	9.555713818585057	4.095827910388754	14	-0.10202454442985996	0.016427306111490105	-0.03813900498748055
Si	0.01650325187559928	5.490542763100241	5.480252808594804	14	0.0334187127302207	-0.004139736675970423	0.04950611871838723
Si	1.3937530369002316	6.840165331100005	6.834823730512787	14	-0.04629043729447803	0.01699243506085865	-0.08199152021739417
Si	2.748990839627723	8.200241706383954	5.463064652104035	14	0.05683376888080926	-0.0029991943559527345	0.010220914979184658
Si	4.111492236037158	9.565479444198498	6.828548169086701	14	0.008325753247703509	0.02225805875652192	0.012675549228330028
Si	2.7609193219206505	5.465456902673769	8.185478571018669	14	0.037870838702589116	-0.025531332939602434	0.09461847555517341
Si	4.107395916568433	6.843245763340486	9.55418998774269	14	-0.0036777090499398126	0.0079904811139562	0.003786981026046106
Si	0.020412779176550423	8.196505863028477	8.193032184119	14	0.021781375830166465	0.0012706402492171807	0.038761726696020425
Si	1.3816754485786427	9.562382626680142	9.551846893006582	14	0.004489664110042576	0.019871558798360472	-0.010815354529202894
Si	0.008061556714450802	5.478614280807315	10.916625843040627	14	0.014693609794114257	-0.0031411193696249083	-0.008162488059874105
Si	1.3801073774860149	6.831726912994432	12.28042167640218	14	0.00914233629738254	0.02077350254466842	0.01233436355234638
Si	2.7423548020883883	8.201142896667074	10.918002206382118	14	-0.012359303273951815	-0.013219852224605377	0.0012382443221833149
Si	4.124469376114079	9.549831503827967	12.277832802497944	14	-0.0052764223380078875	-0.00281073233598588	0.0010690655921175712
Si	2.745779325164243	5.4726008838272255	13.643562098648733	14	0.03248771549379508	-0.003547354010208305	-0.026907902728009723
Si	4.115473858560758	6.828892259922073	15.01255206509663	14	0.0008878026670471318	0.002275685318863065	0.00643804772165079
Si	0.012131659738575962	8.186297834912414	13.646380366443218	14	-0.0027271714130810676	0.005549730833539628	-0.030787186435049144
Si	1.3959879888023679	9.530431334824087	15.007489014233284	14	0.0011639393784310353	0.024973917306194336	-0.008593919532594954
Si	0.060101199245133206	10.875449639741003	0.025502046484494365	14	-0.11101621395548182	0.03650738155131459	-0.04271685801000421
Si	1.4027862405926639	12.268362111886253	1.3567845729588823	14	-0.19790671824988615	-0.013244791946210813	-0.004515118052712042
Si	2.8337682673524554	13.60890723594332	0.01770756979940443	14	0.143575149066645	0.0007538480798674168	0.16591214075649544
Si	4.144787120678955	15.031264052429764	1.3778216312224663	14	-0.01589097354170722	0.013805292906003094	0.0073045102145406935
Si	2.7590677855207866	10.912463982460402	2.7315569039688294	14	0.1906587723523887	0.02367088112994329	-0.0023471620467631817
Si	4.11196740909553	12.28437052837003	4.097548364565617	14	0.0117808045769185	0.010385465719674136	-0.014068574090786257
Si	0.05444500132271772	13.6166247018224	2.725723745045365	14	-0.16779470407190789	0.034714292701043314	-0.09862297209130405
Si	1.3792143798418328	15.02472632655768	4.095713213443629	14	-0.01683765452058574	0.04180360140028761	-0.009420015671958533
Si	0.01896104355683428	10.916461990261878	5.461934067930666	14	0.03384011689219297	0.01341525622893663	0.045424231912120146
Si	1.3857340819082555	12.284862086706276	6.819814815979378	14	-0.011367370841438688	0.0057258515479697725	-0.015787615107837265
Si	2.7417321615291423	13.651082941193312	5.4503332911952365	14	0.03539872093726673	-0.030104300862017815	0.03144693206019914
Si	4.1087886651878	15.01900786457934	6.816128128457526	14	-0.050658745233409616	-0.026115230957808065	-0.0458070694942902
Si	2.746762441836737	10.928161078664557	8.191246188830634	14	0.004040492010612707	-0.009881529076925112	-0.005860320356213517
Si	4.123732038609708	12.291842215080983	9.542966072398386	14	0.0003568694184365533	-0.01636662802593461	-0.0033892310330191975
Si	0.01738641835305639	13.649641036740322	8.174926452067234	14	-0.018611717191487912	-0.010606580777206871	0.013579549858894093
Si	1.382117851081265	15.011831112870134	9.535985944023677	14	0.002289569287591864	-0.039945977806480626	0.012531053109337706
Si	0.016447541930824622	10.920132292505857	10.911661103844532	14	0.033457022199490906	-0.016672846669564246	-0.00030698997522568056
Si	1.458383126949987	12.25082986456011	12.232429197506598	14	-0.17261964031569776	-0.07850458718220936	0.042444063735536504
Si	2.7702097744757186	13.663044194041989	10.897750002928742	14	-0.004108883412128645	0.05389653816307209	-0.018399858113107716
Si	4.108362647963052	15.004637975883051	12.304426108488906	14	0.036023242419530706	0.09920661299897765	-0.10930514336492325
Si	2.7647534769433766	10.899667080440105	13.651476187862311	14	-0.02733239221636617	-0.04020077434370731	-0.027788763410692453
Si	4.160041814380486	12.228971903874992	15.004670746438803	14	-0.023371090249614025	0.08131917617617544	0.03411034006134053
Si	0.10220153221690127	13.64518424115835	13.578545316041131	14	0.3484449347445562	0.07801427739765711	-0.035525219319018024
Si	1.2364002978842044	15.196247415352133	15.02495572044793	14	-0.46435010546629957	-0.06858012064643776	-0.03929728793420727
Si	5.478384886917065	0.007922281852514151	16.371317618150588	14	-0.010416061872983898	0.01618202266394798	-0.01748531595073104
Si	6.82961321214857	1.383817004396892	1.3555491230071146	14	-0.026307035414691118	-0.017044371388325645	-0.017977682619539397
Si	8.1888539382609	2.7512520079744593	16.374660214837068	14	0.008542497426191994	0.0076788631491542525	0.011613425620576857
Si	9.561563362786396	4.105806544614567	1.3532207750210914	14	0.0211517121372622	0.020047936623322632	0.004251065536332834
Si	8.17069905037551	0.00162705809297757	2.72243030419251	14	-0.0033174971945870665	0.0014912410856858858	0.025577612835365107
Si	9.505771491622362	1.4023569463123415	4.069660621622538	14	0.002019603228976316	-0.07046319818291423	-0.11664899149086222
Si	5.467341209629383	2.7417485468070173	2.72651023838336	14	0.041014786288066186	-0.01622007502268617	0.014166790314015914
Si	6.828204078251328	4.115785178840382	4.085210250325818	14	-0.02746171881396962	0.02710793472191724	-0.02107843563563798
Si	5.463359587105782	16.3735951717752	5.439535393075678	14	0.0610555238164924	0.08896641472989189	0.07230848047118449
Si	6.862514850121369	1.344251473912371	6.770921146800677	14	0.045118013268490506	-0.06366365305325061	-0.27131871712447825
Si	8.19193437050138	2.766981874734363	5.445597945889391	14	-0.05280356129147715	0.0034062003281321754	0.10671449764434207
Si	9.563611522520759	4.106576652674688	6.830973190212187	14	0.00464341620818743	0.03489324163132563	-0.02344488097230227
Si	8.206844973367538	0.00178927234393908	8.145301869669415	14	0.12310735094454217	0.03243989293484033	0.043570207865761365
Si	9.531873239277077	1.387046542666035	9.530382178990463	14	0.039015751901651054	0.004009895857302944	-0.016828912762497237
Si	5.603519254047677	2.6181543957966467	8.30024105725447	14	-0.2548919252340521	0.31181054059042623	-0.284805707191847
Si	6.859762123438386	4.165268718022579	9.579619939004536	14	0.07394010390735048	0.12015212248956399	0.0828165879146297
Si	5.450103897304988	0.012182454099988152	10.918903396665238	14	0.05675560727907676	-0.12332898022313894	0.1328600676449279
Si	6.827581437692082	1.3879051312266797	12.26714960132351	14	-0.0211933640434486	-0.005935396631561841	0.004929323119787897
Si	8.199143892766335	2.761197871644524	10.91687162220875	14	0.037895521313662535	0.03331869673326694	0.05783521440300694
Si	9.56579076447812	4.119652104418858	12.29099018063149	14	-0.034660813710384236	-0.04558569732622544	-0.03126309802980855
Si	8.182742229613561	0.01200549309893923	13.632469265527428	14	0.032778250394971814	-0.016879049316240125	-0.009387362634392651
Si	9.536608584582924	1.3851966447939588	15.002180184201817	14	0.02844748059371439	0.001687673532145199	-0.010072562202212115
Si	5.4697334601991185	2.739913395685029	13.643791492538984	14	0.024376906650855953	-0.001936813637667548	-0.02239458444902178
Si	6.826893256021336	4.1109187513115355	15.012191588983383	14	-0.007765509398443243	-0.002426094980091727	-0.009980259521218799
Si	5.473846164945718	5.4734201477209705	16.384606078507133	14	0.006009444464782105	-0.011860251731311073	0.021275896524225353
Si	6.832447865220927	6.825647974902844	1.3682395207212248	14	-0.018099553011714415	-0.010668801525954452	-0.028385516955498822
Si	8.176138962629977	8.182365368222438	16.379002313473915	14	0.012325364683725862	-0.0012840099968819507	0.007146130126819571
Si	9.523025189224631	9.513964130559811	1.3805366717663372	14	0.0387092761474894	0.06297793926436712	-0.017665293323141405
Si	8.20410863196243	5.467619759353257	2.725379654209992	14	-0.005174092346265994	-0.004457011072476696	0.011228788264682706
Si	9.565446673642748	6.823927520725978	4.100170009025602	14	0.0028163887676902056	0.01966458482008855	0.0026001588102657525
Si	5.473633156333345	8.182398138778188	2.7428135898688857	14	0.036052295909648376	0.0008258390288315629	0.00787221026922939
Si	6.829760679649444	9.555812130252306	4.1031849001545835	14	0.004167247502896006	0.011706756743698234	-0.003415970528348738
Si	5.4705527240928635	5.459115800136184	5.476975753019825	14	0.110151294125784	-0.027521111346865038	0.04452177394474816
Si	6.837052128303774	6.8410173655495	6.825844598237342	14	0.004033807136780321	0.0008649198296978138	-0.0079904811139562
Si	8.203780926404933	8.19755452081247	5.46050854875555	14	0.004056432863597624	-0.004731862231200525	-0.010189033273214822
Si	9.565708838088746	9.556680549979676	6.834102778286292	14	0.0001426963452682184	0.0023638742313441437	-0.014164219208695768
Si	8.215889646754484	5.4953108789618375	8.186691081581412	14	-0.03364342733520164	-0.02363668542918532	-0.01086317708815765
Si	9.574704355642066	6.842639508059115	9.567838924212484	14	0.008160174065085972	0.01475531632179781	0.012444406860048716
Si	5.475730471901332	8.20494428113405	8.192540625782751	14	0.012593530968617307	-0.018135291375664477	0.0003039046488415029
Si	6.843688165843108	9.565954617256871	9.557041026092923	14	-0.001732153654183761	0.00925675048412913	0.0033259818421435545
Si	5.466587486847137	5.4993088867633135	10.933748458419897	14	0.0012629269332567364	-0.02337134736014604	-0.029007981553506673
Si	6.84599849002347	6.845523316965098	12.290515007573116	14	0.015122470161514955	0.01723437607148459	0.005544074401835302
Si	8.209909020330146	8.21005648783102	10.92763674977256	14	0.004742146652481116	-0.0034229125127131373	0.0004401732308093511
Si	9.57588409564906	9.576392039263181	12.29156366535711	14	0.0016804744372487842	0.012437207765152301	-0.021366913652558595
Si	8.198439325817715	5.4754519221774585	13.653016403982551	14	0.0012773251230495655	-0.0032521911194553052	-0.01217444080143317
Si	9.553616503017071	6.854600760907792	15.00680083256254	14	-0.026332746467892593	0.025032795618025724	0.023703791278041182
Si	5.480367505539929	8.19845571109559	13.655015407883289	14	-0.008745100525419661	-0.008765926478512862	-0.017762223993710986
Si	6.8456380139102215	9.56271033223764	15.01084799619764	14	0.0065506621346732765	-0.0015640033662460764	0.021476956960260935
Si	5.494131138954845	10.896570262921749	0.018487509026249672	14	0.0049709750259742955	-0.011970552149545427	0.004947835078092964
Si	6.841099291938875	12.288302995060004	1.3640235887240129	14	0.028763726548092606	-0.023867570686934618	0.03084760741007262
Si	8.19460517079499	13.658325234014018	16.383917896836383	14	0.04215455727648783	0.009811080791153056	-0.031979665082533824
Si	9.54599734880524	15.028429399357407	1.3702336090386	14	0.05357463577698955	0.0059364250736899	-0.008469220924567773
Si	8.186674696303538	10.912873614407275	2.73312989064482	14	0.002914604990919862	0.00012469860802718184	0.02217166961776494
Si	9.532807200115945	12.265789623259892	4.125223098896324	14	-0.044628731926066326	0.003978014151333108	-0.01377186853684117
Si	5.482284583051292	13.642988613923112	2.734915885933184	14	-0.003491046803697062	-0.04911633915185278	0.02364105630822957
Si	6.837068513581649	15.010536675918017	4.098039922901865	14	0.005813012018322791	0.002061255135162715	-0.03559103961521381
Si	5.47599263634733	10.9290458836698	5.466456404624139	14	-0.00011621396047069318	-0.008709876382533633	-0.023737472757735124
Si	6.8408207422150005	12.295184811767465	6.8310551166015605	14	-0.009349310275654459	0.015486538674847925	0.06816540135829789
Si	8.204256099463304	13.66237239764912	5.475304454676585	14	0.03404477687567676	0.022335191916126363	-0.06339908631580737
Si	9.603181968588641	15.033738229388874	6.7974325264022655	14	-0.1101183839776861	-0.016149112515850085	0.05013989617980373
Si	8.206582808921542	10.930913805347538	8.192163764391628	14	0.009051576279581313	0.006803658898175848	-0.0025173692189569843
Si	9.570591650895466	12.306359571278145	9.54635782491849	14	-0.07709587857730023	0.014426471951350871	-0.013289529178781392
Si	5.474698199395213	13.662388782926994	8.181841039330441	14	0.011693644106565476	-0.016166853142559105	-0.006077321645234014
Si	6.825090875455097	15.045437317791553	9.534904515683934	14	0.001755807823129123	-0.05083512305837177	-0.007893807553918632
Si	5.477237917465823	10.928750948668052	10.918460994162615	14	0.025745506012770775	0.0070083188816596345	0.007445406786084807
Si	6.848226887814455	12.296970807055827	12.27380202414072	14	-0.002672149759229899	0.006550405024141261	-0.011003816549169747
Si	8.189640431598894	13.675513390504788	10.893932233183891	14	0.033459079083747026	-0.011858194847054955	0.02229225445727989
Si	9.54879923132185	15.038834050807969	12.261742459624791	14	0.02669990030760974	-0.03673261037735956	0.06832275300389094
Si	8.208942288935527	10.940925210129103	13.656670320948654	14	0.028185999182655328	-0.003937904908338798	-0.02404112029604461
Si	9.575490848980062	12.296135157884208	15.035016281063116	14	-0.01971240737904331	0.0275151978046287	0.0048457621968830845
Si	5.483464323058285	13.644643526988478	13.655146490106288	14	0.008865428254402589	0.010466198426726785	0.011247557333519786
Si	6.838674270813389	15.022907560713564	15.01312554982225	14	0.012418438696315221	0.015988675543872843	-0.015578070024245194
Si	10.892408402341525	0.055808256441909405	0.023694750334892895	14	0.0013472591877575935	-0.09742843655956324	-0.03391930693605353
Si	12.307162449894015	1.3502976414482093	1.3871661551945218	14	-0.07218866696326559	-0.1172909964893032	0.002376472647412869
Si	13.56145547121761	2.916759699788824	0.13208827906071888	14	0.02340142929239177	0.19433648140232854	0.09070859569482423
Si	15.073669151570007	4.182653497847849	1.4470985860775436	14	-0.1220899645693596	-0.12296696859406211	-0.09517717674124158
Si	13.64996874229782	16.313379275584943	2.7326711028643227	14	-0.021143998821301756	-0.034080258129094806	-0.10502425300687672
Si	15.034442796337496	1.3395308753566124	4.077443628613116	14	-0.024559455128586462	0.009887442619161453	0.023076184469393038
Si	10.917461492212247	2.733211817034195	2.7249208664294953	14	0.03598107629228028	0.17063860366652367	-0.030860462936673366
Si	12.282961394472789	4.089224643405169	4.111918253261905	14	0.048410056520408105	0.01284729906371592	-0.053873141104658746
Si	11.036467765417646	0.12079882260491277	5.350120931712349	14	-0.23046796735583747	-0.13979022492485502	0.30429571396069743
Si	12.319664416912564	1.405362006274598	6.8658902173635985	14	0.04113100024853688	0.03370667652607729	0.06256990485005962
Si	13.674956291057043	2.7225450011376346	5.453249870656969	14	-0.012744197740377983	0.037372558491544416	0.007029401945284847
Si	15.031116584928892	4.106773276009187	6.808885835636821	14	0.024767457548986446	0.0168960186113531	-0.02081258334553467
Si	13.670827201032568	0.00525639714226792	8.190951253828885	14	-0.02860637490249954	-0.008322667921319332	0.020485024527747805
Si	15.036818661629358	1.3846313527072747	9.530693499270084	14	-0.013086926079553722	0.01587400424659424	-0.0070350583769891745
Si	10.924539932254204	2.7536934143778193	8.202732268620938	14	0.008710647714129677	-0.018185170818875347	0.007258487429310043
Si	12.297593447615075	4.130531928927791	9.543670639347006	14	-0.01044023026299329	0.0006744009254748412	-0.0014940693015380486
Si	10.898241561264989	0.02427970475502682	10.886984875364933	14	0.022969483598606892	-0.019405417403817626	0.027013832267199823
Si	12.233084608621592	1.4679734300901661	12.20231305677253	14	0.017534681172877885	-0.09375509838866769	0.08446492353537664
Si	13.67403871549605	2.76590044639462	10.879562344487603	14	0.020850121483208833	0.004693552761930318	-0.011596713435995895
Si	15.018844011800592	4.113982798274143	12.273965876919467	14	-0.02487827218828483	0.011163996410614973	-0.03808398333362939
Si	13.583133193846104	0.04027992859986668	13.508711261738307	14	0.19155685944071646	0.17666321765269463	0.05720375093637856
Si	15.275634086656025	1.1670004534450653	14.725203447004507	14	-0.13746800259969727	0.019643501756463337	0.09750762660342381
Si	10.914151666081516	2.764360230274379	13.662634562095118	14	-0.05994197810233628	-0.011675903479856456	-0.013634057291681236
Si	12.235476859191326	4.173936530018402	15.01265037676388	14	0.1661088303134868	-0.12693366988198654	0.08370927568178511
Si	10.896406410143001	5.51284312628798	0.008830026246783612	14	-0.02804047462153495	-0.02477517086494689	0.03301504919495745
Si	12.298625720121192	6.836019855797655	1.3722670220228752	14	-0.0163334607673047	0.017471689092534253	0.029746660111985217
Si	13.661716986534122	8.187362877974284	16.384212831838134	14	-0.012577075894568359	0.035448086159413576	-0.03050205085504472
Si	15.031034658539516	9.533511767064567	1.370712059152547	14	0.034452297068920223	0.057910547788887275	0.02498060218002672
Si	13.650378374244694	5.496867480359953	2.775993777565558	14	-0.04931405715097217	-0.02161888197393311	0.032608300333310025
Si	15.033525220776502	6.850127580047944	4.122257363600967	14	0.005127041118907284	-0.006335460619376882	-0.0025248254243854136
Si	10.928685407556552	8.188051059645028	2.7376358420604174	14	-0.01182528469895706	-0.005946966605502507	0.023112694164939142
Si	12.291317886188988	9.533708390399067	4.1259112805670695	14	0.007476002939394569	-0.01632214790389605	0.019200243199269808
Si	10.927800602551308	5.4673248243515085	5.469094434361997	14	0.019821679355149602	-0.015471112042927036	0.0017295825488636127
Si	12.293153037310976	6.8294657446476945	6.835413600516284	14	0.00811183728506719	0.0024698037705342445	-0.010312960549645958
Si	13.662896726541117	8.192573396338501	5.488199668364131	14	-0.013225508656309703	-0.017290169056931804	0.011067579961109422
Si	15.038915977197343	9.556582238312428	6.831104272435185	14	-0.009876643976816831	0.005280021885456095	-0.024313143238916278
Si	13.67149899742544	5.472502572159977	8.177515325971468	14	-0.011776433697874247	-0.02285378385920023	0.010071533760084055
Si	15.032755112716382	6.833430981893421	9.546177586861866	14	-0.037169698281784735	0.0027258858604209935	-0.013977042741388987
Si	10.935026510094138	8.199897615548581	8.198996425265463	14	0.009898241261506074	0.0019311572059632224	-0.01196335305464901
Si	12.298789572899942	9.564430786414505	9.559318579717534	14	0.01615219784223426	-0.0026839768437025794	0.004260835736549396
Si	10.938500189003618	5.476582506350827	10.930192853121042	14	-0.0004555998627302396	0.023874769781831034	0.004273691263150137
Si	12.304508034878282	6.842279031945867	12.289531890900623	14	0.013041674625919115	0.0062357017329551356	-0.018795037000814474
Si	13.666304864339097	8.192294846614628	10.909481861887171	14	0.0022047228120269774	-0.0025700768780200197	0.004367793717867557
Si	15.042160262216573	9.54308076934351	12.266084558261642	14	-0.06634480168110103	0.06786638180956467	0.07865448262237398
Si	13.663994540158734	5.475648545511958	13.658767636516641	14	0.00706745430402304	0.016018757476118577	-0.02985078987745121
Si	15.03227993965801	6.832660873833301	15.019696046250086	14	0.0023631028997480995	0.026928214460038888	0.0007661893854041276
Si	10.942367114582094	8.210974063392014	13.657948372622897	14	0.004148735544590941	0.023811520590955388	-0.013511929788974199
Si	12.300919659023679	9.573737624247446	15.037637925523102	14	0.04624364317765134	-0.04183831132210961	-0.03286206842840864
Si	10.883150720342206	10.878333448646984	0.03358490406018253	14	-0.0077868495726004724	-0.015983533333232547	-0.04801307785897724
Si	12.161186009306531	12.14399785281576	1.5561147553626156	14	0.18318174097086606	0.15026567933073434	0.07811455050514289
Si	13.222362145596554	13.191885528749241	16.157407815493766	14	-0.18033372760773808	-0.23069191062922237	-0.04021645808616021
Si	14.973817268200365	14.876701726235835	1.3607334249267329	14	0.22385508447241662	0.4101036398691553	0.17826373071448684
Si	13.694323689505175	10.868141805808797	2.7939356568385736	14	-0.07330658355646599	0.055610436969482806	-0.06274988222246998
Si	15.046584287242796	12.286172908936269	4.10374199960233	14	0.050551015920495414	-0.0721593563626159	-0.000600867313318606
Si	10.859310141034227	13.660094844024508	2.786201805681621	14	0.04254639372727839	-0.07337626051064199	-0.06186927865031928
Si	12.306359571278145	14.948239849437646	4.107035440455185	14	0.0900205679111526	-0.014517231969152097	-0.09646144384865556
Si	10.931094043404162	10.919247487500611	5.471748849377731	14	0.007720000834276622	0.003936105134614695	0.006869479194371637
Si	12.301984702085546	12.275882954430832	6.837428989694897	14	0.03553884617721481	-0.02506339177133549	-0.009669927109076925
Si	13.679413086639016	13.628078011056953	5.484201660562655	14	-0.006075778982041925	0.015522019928265969	-0.002675235085614076
Si	15.034098705502124	15.025709443230173	6.825516892679844	14	0.01183711178342974	-0.023997411505602095	-0.0010037595169858102
Si	13.67033564269632	10.912988311352398	8.191393656331508	14	0.005761075690855801	0.003039560709479059	0.02806927100112061
Si	15.043700478336815	12.279782650565057	9.53575655013343	14	-0.005517334906505763	0.018437396250781876	0.005181034330630394
Si	10.941580621244098	13.666616184618718	8.175352469291981	14	0.076380082856171	0.0344345564422112	-0.008689821761036477
Si	12.291121262854489	15.039849938036213	9.547521179647607	14	0.0211882218328083	-0.005136554208591832	-0.020543902839579197
Si	10.935960470933008	10.941170989297227	10.915954046647757	14	0.02191867285426237	-0.0068365690462737425	0.015447200763449657
Si	12.31614158216946	12.308833748237255	12.268263800219001	14	0.05646147283045182	0.02978316980753132	0.03619884891289682
Si	13.66869711490883	13.651033785359688	10.86925600470429	14	-0.014460410541576827	0.012614871142774535	0.06857394999366942
Si	15.048042576973662	15.022940331269316	12.210325457653356	14	-0.02885448656589383	-0.08292226034328778	0.15535261120664728
Si	13.667304366289464	10.915347791366385	13.6245224057581	14	0.08404377648393638	-0.06912493786377714	-0.03445409684264433
Si	15.13363926859214	12.212160608775346	14.973079930695995	14	0.004641359323931313	-0.14328769949185244	-0.06496720345056568
Si	10.918313526661741	13.656572009281405	13.621999072965366	14	-0.048959244616791735	0.07986778722295186	-0.06470083693939835
Si	12.222729113004656	15.097247566431987	14.987859451339155	14	-0.1254809953761029	0.17509355785474423	0.015707653732380658
H	2.782793667883642	14.653960258804444	15.120907907683343	1	0.267164582258715	-0.1538071197987063	-0.13760272851847302
H	14.69538224127219	2.580255248072003	15.392280879847437	1	-0.3141026809833383	-0.07342022641161652	0.17684088103031692
H	14.006217453853896	14.067318155049398	14.050719868562124	1	-0.05873895792303899	-0.19896884185763933	-0.08906180273726938
H	15.051745649773391	1.2961066119325524	1.1300434591982285	1	-0.28513892244133815	0.3931999079418418	0.12475568656528911
H	11.960335273116007	0.9910537010966016	4.35286376441231	1	0.1133132394485021	0.07195315371594004	-0.1155058780655244
H	12.414862881365734	12.384943363966165	15.110634338455782	1	-0.06768023378438594	-0.004703065851614866	-0.08984136187033827
H	6.535251695125991	1.702151821478237	9.224780361345703	1	0.1577522238019415	-0.15290209072601418	0.13165113392339423
