222
config_type=interstitial dft_energy=-23323.00290193291 dft_virial="2.8354107307765424 -2.261866110021173 0.1332885386262477 -2.261866110021173 1.8135319346419765 -1.6721653027656531 0.13328853862624773 -1.6721653027656531 2.6011460265243493" pbc="T T T" Lattice="16.3852778749 0.0 0.0 0.0 16.3852778749 0.0 0.0 0.0 16.3852778749" Properties=species:S:1:pos:R:3:Z:I:1:dft_force:R:3
Si	14.790957567116482	15.039768011646839	15.004211958658304	14	0.03447158035882134	0.05882997505137222	0.03594353815460612
Si	0.056697977030516475	0.04194303430416903	0.028385855390476764	14	0.014084772054303193	0.05045691346577799	0.07676883398057739
Si	1.4199023018607846	1.4124781324556672	1.4206330852540048	14	0.013906851566148947	0.0013485447404176676	0.02413419430863397
Si	2.751678025199207	2.734948656488934	16.386097138793748	14	0.013328867090179655	0.012229205344752322	-0.02521765809054437
Si	4.109853708249668	4.106887972954311	1.3507728145065814	14	0.0013775982305353407	-0.007691718675754993	0.050270765440599274
Si	2.7448125937696237	16.36949885230647	2.743157680704259	14	0.01513069769853943	-0.031189564417652315	0.010282621506868213
Si	4.105659077113693	1.3471778845408282	4.1031357443209595	14	-0.008229593908729972	0.0393741639832797	-0.0006201506032197166
Si	16.375020690950315	2.740830971246023	2.743616468484756	14	-0.006098404708859229	-0.016993463502986715	-0.027114362485217612
Si	1.3483264925198588	4.10621617656144	4.105822929892443	14	0.03680640110004781	-0.0031740295177228035	-0.004000896988682426
Si	0.009878684030777211	0.005272782420142821	5.470569109370738	14	-0.010248168695578229	-0.011447846437959323	-0.03130243594120682
Si	1.3866418263025249	1.3788145790616853	6.813817804277166	14	0.011518808944795409	0.012961970360994527	-0.010724080290337638
Si	2.7677192122387337	2.766047913895494	5.428049313285373	14	-0.028639799271661468	-0.03038789377883015	0.021745637466216407
Si	4.099301589298232	4.100251935414977	6.842967213616612	14	0.0013380032086050605	0.0030105072193613858	0.002107020809861351
Si	2.7410931356920214	0.00802550910312602	8.185429415185045	14	0.0019596964750168656	0.038808006591783094	0.0007942144333937415
Si	4.1019723895918405	1.3678216961354148	9.558335463045042	14	0.025655517326565593	0.014744003458389159	-0.014788740690959734
Si	0.007017814513819671	2.732015691749327	8.17484452567786	14	0.03152252255661149	0.006032584412663437	0.02842485486689709
Si	1.3708677192923588	4.088257912010549	9.54933994549172	14	0.0006923986627158777	0.006856623667770897	0.03653617793090025
Si	0.03874135100741356	0.026383574434163982	10.898094093764115	14	-0.023274673800108468	-0.004483750567806234	0.006569174092978342
Si	1.4154815538901364	1.337315585787926	12.272753366356724	14	0.09504939280683022	-0.03870619082110523	-0.09915287689778657
Si	2.7418796290300165	2.7384387206762875	10.922245993351718	14	0.0787917796464699	-0.06641396441421302	-0.06281595962919778
Si	4.1036109173793305	4.100383017637976	12.293579054535723	14	-0.003676937718343768	-0.007707145307675882	-0.0021473871633876755
Si	2.7745682583904423	0.00141241095281638	13.651082941193312	14	-0.03766309339272115	-0.035093530735765155	0.04523165612364105
Si	4.118062732464993	1.3727553033035471	15.021006868480079	14	0.02342842589825333	0.0022777422031191835	0.03324053513153444
Si	0.1476510159862989	2.877336721221815	13.504254466156334	14	-0.05222506259444383	-0.06247425973215011	-0.07599236017389266
Si	1.38948467201382	4.1262553714024435	15.060200453156838	14	0.07393907546522241	0.08774565392388559	0.11950060440143848
Si	0.00295590412863196	5.4758123982907065	0.021038696791371603	14	-0.010551302012823687	-0.02472014921109572	0.003201540344648388
Si	1.3858684411868296	6.820322759593501	1.384218443704827	14	0.010450514684273882	-0.005155066166896898	0.0172397753926569
Si	2.740634347911524	8.183086320448934	0.00409304241315002	14	0.005096187855065507	-0.0016686473527761034	0.04544531497574535
Si	4.100301091248601	9.55776197831942	1.36327478152513	14	-0.0028729530847334634	0.00783107258410702	0.004473466146525643
Si	2.766424775286617	5.430228555242735	2.766162610840618	14	-0.03114842673252995	0.023893281740136097	-0.03150786725628665
Si	4.09722065900812	6.843966715566982	4.10216901292634	14	0.006732953501871774	-0.002251002707789643	-0.0019344996428794147
Si	0.008127097825950402	8.188542617981277	2.732916882032446	14	0.031470072008080476	0.002505027913420273	0.004805395843356759
Si	1.3683017847771493	9.559056415271538	4.09635223928075	14	0.005027282232485539	0.005028567785145613	0.003486933035184825
Si	16.379674109866787	5.473239909664347	5.470388871314114	14	0.011150626662950204	0.0068550810045788085	0.01059526791379822
Si	1.356058705149024	6.839886781376132	6.834856501068537	14	-0.004139222454906393	0.0034283118338854484	0.023698391956868875
Si	2.7265921647727347	8.198816187208838	5.468750343526625	14	-0.002350247373147359	-0.013270502999412296	0.0102545964588786
Si	4.102676956540462	9.555713818585057	6.827991069638954	14	0.002881694842821967	0.007248460118561465	0.003150889569841471
Si	2.7276080520009787	5.471601381876857	8.192573396338501	14	-0.014097884691435946	-0.002774479750971792	0.007368273626480365
Si	4.101022043475097	6.826450853518714	9.557106567204423	14	0.005831266866095843	0.010087988834133003	0.003935076692486635
Si	16.35986430891603	8.213694019519247	8.220035122056833	14	0.031739266735099976	-0.011280467481617682	-0.052160270740376095
Si	1.3916934074713565	9.548553452153726	9.545505790468995	14	0.021255584792196185	-0.0011829655578001312	0.023295756863733686
Si	0.0324264649144271	5.441272232530418	10.950690835742543	14	-0.11937384890915516	0.11979216774474326	-0.1280927241603093
Si	1.3795043992602183	6.83774030997452	12.298789572899942	14	-0.013481076525132425	-0.009755544916237856	0.005406006046143351
Si	2.749990341578092	8.195555516911734	10.926309542264693	14	-0.02206728274176693	-0.014377363839736043	0.011153197768270352
Si	4.115965416897006	9.557352346372546	12.291907756192483	14	-0.016421392569253766	-0.00433642623296175	-0.0329515428935498
Si	2.7346373362093104	5.462360085155414	13.65765343762115	14	0.06572593663054138	0.04354783924947607	0.05342345478416485
Si	4.1035617615457065	6.829662367982194	15.014534683719493	14	0.019060117959321738	0.021265612102944764	-0.02068248541633518
Si	0.00656394231668494	8.19393337440212	13.664813804052478	14	0.010957022432343054	-0.006813429098392409	-0.016303635945590984
Si	1.381619738633868	9.550945702723462	15.025021261559429	14	0.011627566699837673	-0.014243666363088343	-0.06623912925244295
Si	0.044187817373030326	10.90386171157608	0.03576578454533172	14	-0.004674526582561222	0.028703562683601143	0.019141107776906405
Si	1.388411436313014	12.293824833703846	1.3786458106995738	14	0.04031724541471001	-0.04207922389060749	0.03037966624180567
Si	2.766981874734363	13.64241512919749	0.01743229713110611	14	-0.03387636947720706	0.021306749788067132	-0.009221269230711086
Si	4.118275741077366	15.021498426816326	1.3714510351847051	14	0.006918587305986466	0.02356957958032946	0.011955896849220583
Si	2.743124910148509	10.920804088898727	2.7383076384532883	14	0.010144810261708275	-0.009206613930386241	0.014724205947424018
Si	4.103086588487334	12.28899117673075	4.103381523489083	14	0.0028914650430385295	0.00915519182398328	0.0006723440412187226
Si	0.01272316826985985	13.641382856691372	2.7392907551257824	14	-0.07265326569461636	0.021681874054276736	-0.06351118650776584
Si	1.3659193653741388	15.01763150123785	4.104217172660702	14	0.012896921396394779	0.057965055221674416	0.019505690511303405
Si	0.008533452717247921	10.923540430303834	5.4624911673784124	14	0.0200613063709874	-0.0012888950969902322	0.012964027245250644
Si	1.3737253117537411	12.284173905035532	6.830776566877687	14	0.007907948633179448	0.023038389221186863	-0.0010340985597635573
Si	2.7350961239898077	13.6531802567613	5.46639086351264	14	0.007495029118763664	-0.03645441678171954	-0.0076780918175582075
Si	4.101874077924591	15.018434379853717	6.830514402431689	14	-0.016942041396583753	-0.010390607930314431	-0.0026873192806187722
Si	2.7491055365728476	10.92676833004519	8.192049067446504	14	-0.009175246445480435	-0.002412982342958972	-0.0010068448433699876
Si	4.113884486606893	12.290039834514745	9.555828515530182	14	-0.007524339719413353	-0.024002039495178363	0.0007512769745472688
Si	0.0095690022789416	13.661192657642127	8.184315216289551	14	0.000720166600173477	-0.009086800422467341	0.01147715703860901
Si	1.3823980393329256	15.01977797263946	9.54680022742111	14	0.012191410096546148	-0.06716447005716424	-0.028796893806722516
Si	16.34544526438612	10.87005888332016	10.868092649975173	14	0.012235890218584709	0.02929620245989527	0.036852423885278464
Si	1.4059092745556196	12.22181153744366	12.222368636891408	14	-0.0426314973133753	0.009761972679538227	-0.011745323323500454
Si	2.746778827114612	13.650788006191565	10.912595064683401	14	0.011793660103519238	0.042697574720103104	0.007507627534832391
Si	4.114064724663517	15.011454251479012	12.282846697527665	14	0.025483767491179702	-0.04175834994665301	-0.016616025241988974
Si	2.7462544982226147	10.912906384963025	13.65234460758968	14	0.014234153273403796	0.006653763458011214	0.04752919583772537
Si	4.109394920469171	12.285468341987647	15.01482961872124	14	0.014261406989797365	-0.012098850305020815	-0.02714984373863566
Si	0.09738262199389318	13.628176322724203	13.629667383010819	14	0.10902566421662317	-0.007423295280331535	-0.0070129468712359
Si	1.4307903190086555	15.02546366406205	15.033230285774753	14	0.0002547965372266746	-0.0028647255477089895	0.019939435978812384
Si	5.478024410803818	0.009428088889217461	0.00857113885636019	14	-0.021935899259907365	-0.0045326015688890485	-0.002376472647412869
Si	6.819405184032506	1.3839923268701535	1.3849246491812355	14	-0.004930351561915956	0.00462413291828632	0.0036792517131319013
Si	8.187379263252158	2.735751535104804	0.00848101982804824	14	0.004821336696341678	0.0012917233128423948	0.0469949201521986
Si	9.560891566393526	4.0991541217973575	1.3653507962318798	14	0.0034637930873034923	0.011714984280722707	0.0007919004386056083
Si	8.187674198253907	0.006072383980437941	2.73553852649243	14	0.0022075510278791403	0.047615584976482356	0.0001272697133473299
Si	9.562825029182763	1.3642644523087741	4.096745485949748	14	0.010490881037800206	-0.0028876083850583076	0.00515249506157675
Si	5.432637191090345	2.7648681738885013	2.766195381396368	14	0.028129691976144088	-0.03140707992773684	-0.029004896227122497
Si	6.8448515205722265	4.0987117192947355	4.099203277630983	14	-0.004163133734383769	0.004556255737834411	0.0065126097759350835
Si	5.469127204917747	16.376986924295302	5.46783276796563	14	0.007479859597374792	0.01369267849298061	0.008320868147595226
Si	6.823534274056981	1.3717771022144156	6.821813819880116	14	0.013431711302985578	0.009251094052424804	-0.00760815775285018
Si	8.20176553722632	2.730459090351211	5.462900799325285	14	-0.00784341388964373	-0.0048452479758190545	0.002523282761193325
Si	9.556320073866429	4.10307020320946	6.826762173798337	14	0.010256910453666732	0.0034105712071764265	0.005215230031388364
Si	8.183479567117931	0.00068326608738333	8.178465672088212	14	-0.0046927814303342735	0.0022173212280957033	-0.0009610791686713519
Si	9.535576312076806	1.372614389913823	9.534199948735312	14	0.02461679077722577	0.04701754587901591	0.00864354186527381
Si	5.464834262114524	2.7307867959087093	8.199455213045958	14	0.02240666864402648	-0.017285541067355536	-0.02709919296382874
Si	6.828499013253076	4.10039940291585	9.556352844422177	14	-0.0060652374502293185	0.0034617362030473736	0.017857612001088485
Si	5.46789830907713	0.00135670100804172	10.917740041936119	14	0.003011021440425415	0.011736838675943965	-0.005358183487188597
Si	6.829334662424696	1.369103024865232	12.284583536982403	14	0.005468741015954964	0.0038327467007447415	0.023417627255908704
Si	8.19119703299701	2.73637417566405	10.919427725557235	14	-0.0054903383006442074	0.006249328591151921	-0.002764452440223215
Si	9.539426852377407	4.122666995547839	12.283452952809034	14	-0.021354572347021886	0.004708465172787176	-0.028365976555065696
Si	8.187641427698157	0.0037358433554772006	13.654573005380666	14	0.016821970778132838	-0.007177240501193362	-0.016671561116904175
Si	9.545030617410621	1.3741120043115889	15.020564465977456	14	0.010229656737273161	-0.001014558159330432	-0.037642010329095935
Si	5.476861056074701	2.7392252140142825	13.655015407883289	14	-0.022962027393178465	0.017670949754845733	-0.02720769360833899
Si	6.8367244227462765	4.1051839040553215	15.02154758264995	14	0.0025603066778034575	-0.006714184433034693	-0.02804818793749539
Si	5.47037248603624	5.471175364652109	16.37651175123693	14	0.004897184303286046	0.015517391938689703	0.013947475030207284
Si	6.824369923228601	6.823845594336604	1.3726406063584227	14	0.008480019566912394	-0.004894870308497913	0.005980390974664432
Si	8.185822661854042	8.179383247649207	0.0011273071177931202	14	-0.005112128708050425	0.0009695638162278406	-0.008226765692877808
Si	9.537542545421793	9.536624969860798	1.3721785415223506	14	0.02773451308843733	0.008668995807943279	0.0590084097605905
Si	8.201273978890073	5.464408244889776	2.731868224248452	14	-0.0072037228859908875	0.006611083109696755	0.001462958927164257
Si	9.558007757487543	6.828499013253076	4.103807540713829	14	0.01395210301978355	0.0036525122178023613	0.0020363154135572786
Si	5.46378560433053	8.200045083049456	2.7325072500855736	14	0.007102421336377054	-0.010246368921854125	-0.005702711600088439
Si	6.828351545752202	9.557745593041544	4.101120355142346	14	0.00439684720798523	0.008609346164515842	5.322188012706524e-05
Si	5.437421692229815	5.436438575557323	5.436274722778573	14	0.04022905650222893	0.04525736717684253	0.043989040922413486
Si	6.81724232735302	6.817881353190141	6.817570032910518	14	-0.010408862778087483	-0.00798019669267561	-0.010338671602847441
Si	8.1885917738149	8.190558007159888	5.467013504071885	14	-0.0033128692050107995	-0.0065041251283785954	0.010381866172225928
Si	9.5529447066242	9.559744596942283	6.829908147150317	14	-0.003660739754826835	-0.0027503113609624002	-0.009286318195310832
Si	8.188132986034402	5.466587486847137	8.189263570207771	14	-0.004074173490306646	0.00978614106954762	-0.0020900515147483736
Si	9.55110955550221	6.830039229373316	9.558859791937039	14	-0.0011626538257709614	-0.004623875807754306	-0.005908400025700285
Si	5.467914694355004	8.189378267152895	8.190951253828885	14	0.008430911455297566	-0.0015850864298712906	8.818891248107912e-05
Si	6.831022346045811	9.558269921933542	9.55779474887517	14	-0.006377626746627309	0.0005263052590343117	-0.0001884620199668542
Si	5.46625978128964	5.466177854900265	10.922868633910962	14	-0.010423003857348297	-0.01140979407922113	0.01288792252777426
Si	6.825566048513469	6.838084400809893	12.287237951998137	14	-0.00021957239434064593	-0.004164162176511829	-0.00902098012627155
Si	8.195899607747105	8.20015977999458	10.926653633100065	14	0.006776919402846307	0.004208385188018376	0.0012950657497585874
Si	9.560989878060775	9.564529098081753	12.296315395940832	14	0.00564871838836533	0.004605620959981255	0.005861091687809562
Si	8.18695324602741	5.4806952110974265	13.653737356209046	14	0.002603501247181945	0.0039854703567615375	0.008003850861620969
Si	9.565544985309996	6.832955808835049	15.01710717234585	14	0.008652797844426345	0.007183411153961718	0.00341982718632896
Si	5.4701922479796155	8.19550636107811	13.65886594818389	14	0.011467643948924461	0.01724260360850906	0.023933905204194438
Si	6.834528795511039	9.557122952482299	15.023939833219684	14	0.00720757954397111	0.015144067446204197	-0.022210750418631197
Si	5.467718071020506	10.920656621397852	16.385441727678753	14	0.0020280878765328047	-0.0006790289150511076	0.015423032373440268
Si	6.828204078251328	12.285632194766396	1.371737777547516	14	0.007028630613688803	0.019763058153850224	-0.0026580086799690844
Si	8.188231297701652	13.654228914545294	0.00542680403216688	14	0.01595473695364689	-0.014785655364575559	-0.008390545101771242
Si	9.548061893817477	15.020187604586331	1.374175906895301	14	0.006576630298406771	-0.03555015904062346	0.012125075579286325
Si	8.191213418274884	10.919853742781982	2.7365707989985486	14	-0.0026914330491310087	-0.00279736258832111	0.006305635797663164
Si	9.54070490405165	12.28360042030991	4.121651108319596	14	-0.015346927655963884	-0.025947852001466425	0.0014045948363968954
Si	5.471716078821982	13.653196642039175	2.7409948240247717	14	-0.010022425648469226	-0.014356023665578815	0.00426160706814544
Si	6.835380829960534	15.018893167634216	4.104118860993452	14	0.005443029962753484	-0.020119670461754762	-0.002012918355143931
Si	5.465915690454267	10.922393460852591	5.46625978128964	14	-0.0022391756233169618	-0.002936459386141121	0.0035617522000011333
Si	6.825336654623221	12.28661531143889	6.836265634965779	14	0.01040114946212704	-0.004425643587570888	0.0003566123079045386
Si	8.187182639917658	13.653376880095799	5.479777635536432	14	0.0035072447672139947	0.007125304173726372	0.005162779482857343
Si	9.563939228078256	15.017697042349349	6.833152432169548	14	0.01151032429723892	-0.000579527139161377	0.005992475169669127
Si	8.196292854416104	10.927046879769062	8.19929136026721	14	0.007131989047558757	0.0008628629454416952	0.007747254550670192
Si	9.562923340850013	12.296217084273582	9.563349358074761	14	0.009218698125390938	0.00957608176489152	0.009710036352071235
Si	5.469225516584997	13.657096338173401	8.194769023573738	14	-0.001097604861171215	0.006196106711024855	0.004001154099214441
Si	6.834086393008417	15.022530699322443	9.556778861646926	14	0.004384505902448519	-0.011160139752634751	0.018851344207325715
Si	5.4750259049527115	10.926883026990314	10.926391468654067	14	0.0030256767407502595	0.007165413416720681	0.005727651321693876
Si	6.8444418886253535	12.290482237017367	12.29089186896424	14	-0.001555518718689588	0.006521608644555602	0.006173223873675538
Si	8.203649844181934	13.665026812664854	10.927685905606184	14	-0.004646758645103623	0.005954679921462951	-0.005674686552098825
Si	9.56665918420549	15.039341994422092	12.291956912026109	14	-0.012890493633094408	-0.0248934417096737	0.00805578718908796
Si	8.20260118639794	10.927145191436313	13.665288977110851	14	-0.005797328275869889	0.0015820011034871132	0.019734261774264565
Si	9.565954617256871	12.291776673969483	15.038817665530095	14	0.0012009632950411677	0.01565314629959352	-0.03264172470247195
Si	5.476467809405703	13.652082443143684	13.653786512042672	14	-0.012513569593160702	0.003517014967430557	0.00928991774275904
Si	6.831628601327182	15.022760093212693	15.023841521552436	14	-0.00284389959461579	0.00603052752840732	0.004968918141718177
Si	10.906024568255567	0.049921026101457835	0.04859054153801595	14	0.010807898323774465	0.038521328348586584	0.046741152057099986
Si	12.305278142938402	1.3894764793748826	1.3837105000907055	14	-0.02880614978587505	-0.010865233972413766	-0.003925306492270072
Si	13.663519367100363	2.728034069225726	16.372448202323955	14	0.04295854191009813	-0.02670195719186586	-0.050766474546323825
Si	15.020056522363335	4.096172001224126	1.3630322794125813	14	0.027104335174469033	0.018153032002373497	-0.005771103001604379
Si	13.649264175349199	0.0040537177462502605	2.739634845961155	14	0.03617750873873959	-0.06812426367317552	-0.06956022599447821
Si	15.024300309332931	1.3624096388533353	4.104348254883702	14	0.04010590055739384	-0.008341436990156412	0.00838514578059893
Si	10.9249987200347	2.743141295426384	2.739798698739904	14	-0.01445783943625668	0.015046879665102602	0.008007964630133207
Si	12.289073103120126	4.104315484327952	4.103873081825329	14	0.011978522576037884	0.004104512533084394	0.00491338226680298
Si	10.924736555588703	0.0037702524390144905	5.46940575464162	14	0.0001439818979282924	0.021853366779130613	0.0031028099003547016
Si	12.286762778939766	1.3752999369575192	6.830334164375065	14	0.00988255751905317	-0.00979591126976418	-0.0008086126231865708
Si	13.653884823709921	2.7324908648076986	5.461082033481171	14	-0.024735318732484593	0.005259710153426926	-0.005351755723888226
Si	15.017484033736974	4.098908342629234	6.823812823780854	14	0.005837951739928228	-0.009347510501930356	-0.0010536389601966828
Si	13.65645731233628	0.00939367980568017	8.189181643818397	14	0.004761429942382228	-0.018860857297010262	0.02468595351033775
Si	15.027118577127416	1.375747255043504	9.548176590762603	14	-0.03570905334940861	0.010553873118143835	-0.023107809064830863
Si	10.917297639433496	2.739028590679784	8.1887883971494	14	-0.0025525933618430127	0.009131280544505902	-0.0004676840577349356
Si	12.278307975556315	4.125599960287446	9.536379190692674	14	-0.021653849006287123	0.0018116008085763363	-0.036587342926771196
Si	10.899683465717981	0.024050310864778223	10.900060327109102	14	-0.004812852048785189	-0.04987867187927669	0.0019602106960808956
Si	12.184977432780887	1.5206111352632823	12.181978926929778	14	0.056500039410254034	0.12578001492483612	0.06646204408369978
Si	13.663601293489737	2.780598040648405	10.876432756413497	14	-0.041566031268705936	0.00808355512654556	-0.012285512551263566
Si	14.975013393485234	4.136102923405257	12.277865573053694	14	-0.12767466243525322	0.07612040121883604	-0.06796999735396662
Si	13.462226228407216	16.37410311538932	13.417084787861866	14	0.019630903340394613	0.17359280367937382	-0.13083172265786305
Si	15.062494392059325	1.399961418687031	14.972735839860624	14	-0.0421365595392468	-0.06282135895037011	-0.09699906197109853
Si	10.885329962299569	2.783350767331388	13.67377655105005	14	0.04436313674649502	0.011444761111575144	-0.030070876492855888
Si	12.291121262854489	4.11032888130804	15.025054032115179	14	0.003910908302477243	0.011981350791890048	0.014334169270357555
Si	10.924654629199328	5.468619261303625	0.00499423269626952	14	0.004501748305047272	0.0002897635695806885	0.021645621469262646
Si	12.287106869775137	6.830006458817567	1.3752262032070819	14	0.008084840679205636	-0.0012184468112181746	-0.01070171167405235
Si	13.656359000669031	8.188001903811404	0.008151675742762751	14	0.003851772880113837	0.018675480603427587	-0.020767331891900064
Si	15.023300807382563	9.551699425505706	1.3721556021333259	14	-0.028796893806722516	-0.01721843521849967	0.01955325595972614
Si	13.654474693713418	5.45964012902818	2.731065345632582	14	-0.02383517475990075	-0.004179331697900702	0.001879220878496231
Si	15.020990483202203	6.826123147961216	4.093091568983645	14	-0.004133308912670051	-0.0023777582000729432	-0.00406208929530195
Si	10.919296643334235	8.191147877163385	2.7384059501205376	14	-0.004525916695056664	-0.0030547302308679327	0.012670407017689733
Si	12.281322866685299	9.540360813216276	4.122552298602716	14	-0.025249025575450182	-0.013657711460626595	-0.000710653510488929
Si	10.925834369206319	5.46793107963288	5.469159975473497	14	-0.00920969925677042	0.004358280628183009	-0.0015328929918722847
Si	12.289941522847494	6.833299899670422	6.835216977181785	14	-0.011532435802992194	-0.009942721383544637	-0.0027904206039567102
Si	13.654736858159417	8.180235282098701	5.464834262114524	14	0.005582126760573495	-0.0016781604424606514	0.010824096287291397
Si	15.022825634324192	9.553337953293196	6.813768648443541	14	0.00208773751996024	0.007367759405416336	-0.007637211242967854
Si	13.660766640417378	5.470634650482237	8.186101211577917	14	-0.003972871940692812	0.009931408520135986	-0.00032807303885089485
Si	15.040996907487457	6.800873434755994	9.567167127819612	14	0.01346385011948743	0.026929500012698965	-0.016284609766221887
Si	10.912119891625029	8.193392660232247	8.193769521623368	14	0.013539954836963814	0.002744912039790089	6.299208034362793e-05
Si	12.269984254395867	9.55849931582379	9.5608424105599	14	0.02237915781710089	0.017570676647359958	0.028846516139401375
Si	10.923196339468461	5.477368999688823	10.92586713976207	14	0.02541691875285585	0.003885968580871806	0.018368490628201905
Si	12.29654478983108	6.854076432015795	12.27363817136197	14	0.004072116606050528	0.03203802917330119	-0.012888693859370307
Si	13.692193603381439	8.219527178442712	10.883576737566953	14	-0.045684941991583156	-0.03773791255753746	0.02118153695897592
Si	15.02161312376145	9.549077781045723	12.301345676248426	14	0.00386051463820234	0.018264103752203897	0.019664070599024523
Si	13.635942944436906	5.490116745875493	13.659717982633385	14	-0.024213898573558563	-0.01981088071280498	0.016168395805751194
Si	15.025824140175297	6.829023342145073	15.025873296008923	14	-0.006788489376786973	0.017409468343786674	0.015300390649669206
Si	10.934076163977394	8.206337029753417	13.657047182339777	14	0.009447783609416132	-0.005825096213327489	0.0012829815547538916
Si	12.295938534549709	9.5688711967186	15.039538617756591	14	0.008453280071582853	-0.023002136636172777	0.0038625715224584597
Si	10.90299329184871	10.902616430457586	0.024127321670790253	14	0.005586497639617746	0.011165024852743033	-0.06605503811152034
Si	12.194202344224454	12.185714770285257	1.5158659587907113	14	0.04244457795660053	0.05722354844734371	0.18297425277153012
Si	13.485821028547072	13.432454178508522	-0.0029100253505822404	14	0.04524322609758172	0.016684159532972902	0.13141793467085683
Si	15.02572582850805	15.016205982062731	1.380013981402128	14	-0.0007811017962609864	0.014965632736985923	0.0304583420646022
Si	13.674612200221668	10.88541188868894	2.786447584849744	14	-0.009625704097570378	0.024165561793539778	0.015770131591660255
Si	15.024808252947054	12.29374290731447	4.114244962720141	14	-0.02848604717351661	-0.00756110652549147	0.004337711785621825
Si	10.890147233994789	13.672056096873186	2.7821546420465206	14	0.03144024718636676	-0.02298645289371987	0.0009320256785536786
Si	12.293038340365852	15.021203491814576	4.114867603279388	14	0.001801830608359774	-0.013543297273880006	0.011954611296560507
Si	10.9250642611462	10.926391468654067	5.476009021625205	14	0.013742300825659467	0.012362645710868009	0.011171195505511388
Si	12.298707646510566	12.278144122777567	6.847850026423333	14	0.013655140355306447	-0.0018167430192166326	0.014740146800408936
Si	13.653688200375422	13.651328720361438	5.480564128874427	14	0.004137679791714303	0.0022065225857510816	-0.02801733467365362
Si	15.024005374331184	15.026315698511546	6.8298262207609435	14	0.0026384682795359588	0.007461090528537711	0.0003080184173537399
Si	13.684000964443987	10.888688944263922	8.222574840127443	14	-0.02738921364394144	0.012200923186230695	-0.037915061714095664
Si	15.024070915442683	12.303393835982789	9.545587716858368	14	-0.0036514837756743018	0.02308955421705781	0.030828838341235537
Si	10.93592770037726	13.658849562906017	8.20433802585268	14	0.012863497027232853	-0.0017969455082514922	-0.006803658898175848
Si	12.296659486776203	15.040620046096333	9.570476953950342	14	0.00120430573195736	-0.00316477353857027	-0.03276899441581928
Si	10.923704283082584	10.934649648703017	10.935894929821508	14	0.01036798220349713	-0.0090947708489598	-0.016452760054159573
Si	12.308325804623133	12.296266240107206	12.29728212733545	14	0.021015700665826368	0.03468369654773355	0.03689793244944508
Si	13.664518869050731	13.661929995146497	10.923376577525085	14	0.015390379335874385	-0.026424792038353895	-0.014267320532033707
Si	15.092938238350888	15.011372325089637	12.246553307034759	14	0.010049936475394811	-0.19148049761270805	-0.0902637944744386
Si	13.665403674055975	10.923638741971084	13.664076466548108	14	0.031975551314021584	0.0029176903173040404	-0.012296825414672216
Si	15.096264449759493	12.247683891208128	15.012502909263004	14	0.02865702567730646	-0.11487004371985177	-0.19027207811223842
Si	10.927948070052182	13.657079952895527	13.656195147890283	14	-0.03178580374139466	0.015543360102423198	0.04494137833299633
Si	12.223810541344399	15.052335519776886	15.058021211199476	14	-0.2903047872505797	-0.09665401963713464	-0.1443459664416254
H	12.600229529964476	15.282139041972359	12.625938030950195	1	-0.1294924338965979	-0.07434865254272201	-0.06846210691224298
H	12.619662469524107	12.65126967054479	15.287103781168453	1	-0.1283891726037224	-0.06875726980299597	-0.11832329527534266
H	4.0758214861035	4.080556831409346	4.0849480858798195	1	-0.019130566245093794	-0.012070311035967172	-0.006673560968976354
H	1.05644570656754	3.895157412254853	12.417418984714217	1	-0.1630271034767573	-0.20743034946624664	0.30892216087377194
H	15.01409228121687	9.567183513097486	9.554910939969187	1	0.018834117801680726	0.017987195709223944	0.04196635236705299
