224
config_type=interstitial dft_energy=-23353.01005077257 dft_virial="43.99222242381039 0.6425426662644901 -0.43501335790577267 0.6425426662644901 39.44653238110695 -0.6784612004034988 -0.4350133579057727 -0.6784612004034988 42.97053967496748" pbc="T T T" Lattice="16.3199774331 0.0 0.0 0.0 16.3199774331 0.0 0.0 0.0 16.3199774331" Properties=species:S:1:pos:R:3:Z:I:1:dft_force:R:3
Si	12.165547657752631	15.206857052297982	0.9132708331495059	14	-0.3139257889373121	0.27379494865831283	0.3098557292155177
Si	0.24129249834612682	0.19945460419863165	16.145467914407863	14	-0.14170287017251318	-0.19274522431968888	-0.017710801887308027
Si	1.476558118248439	1.4332563221251948	1.3740376520114481	14	-0.0854504282045894	-0.08465004311842729	-0.06350938673404173
Si	2.805648920411387	2.763412818814524	16.313253602397563	14	-0.028335894622819966	-0.014059318111633726	-0.047275170632094736
Si	4.134209323307758	4.108227919234263	1.3646455049986992	14	0.004151049539379073	0.003103838342482761	-0.003936619355678724
Si	2.755464989804604	16.31349840205906	2.70890409418797	14	0.05311029415617081	-0.020842665277780403	0.022139273690731077
Si	4.105567762912668	1.3505874764378267	4.075702204210095	14	0.0006687444937705153	-0.00034967032354013875	0.012173155248773094
Si	0.038072875353678995	2.723020874667601	2.704579300168198	14	0.0019951777284349095	0.0845909076960639	0.051981578920625805
Si	1.3938664245926646	4.073547967188925	4.069108933327122	14	0.018496788783677297	0.011956411070284612	-0.00569474117359598
Si	0.03921037778076606	16.30065457981921	5.46608268162305	14	0.053238592311646196	0.054672240638160764	0.016651506495407017
Si	1.3933866172561316	1.3552158220378538	6.796601481811393	14	0.018830004033168486	-0.020494794727964366	0.00794728654457771
Si	2.7469296416070925	2.7096058532175933	5.429868651699	14	0.003092525479074109	0.014984401805823005	0.019188159004265112
Si	4.109027598128485	4.0644740597361215	6.791607568716865	14	-0.003560209536809045	0.010379552177437794	0.0018758784415800385
Si	2.7464074023292335	16.315097759847504	8.145153857063312	14	-0.006982607828458153	0.04041546163793967	0.025902857658363834
Si	4.099219291691192	1.3690551629011227	9.481613129037305	14	-0.0018905337419048826	-0.015003427985192101	0.016794459951207253
Si	0.021544002209435312	2.7074026562641245	8.146312575461062	14	0.00909579929108786	-0.0016833026531009473	0.016787775077374868
Si	1.358406377626025	4.075114685022503	9.510222049477528	14	0.010496280358972517	0.04585772026909711	0.02913190882993781
Si	0.00869691597409899	16.281445966380453	10.868452171347275	14	0.03182154210534471	0.05211450506567746	-0.005345842181651886
Si	1.413146845932129	1.2944500180634493	12.191675941623025	14	0.006218475327310144	-0.038610288592663695	0.037152214765607726
Si	2.7350813379906618	2.7088714542331034	10.855200349671598	14	0.012186524996437865	-0.029189501589109126	-0.019258864400569186
Si	4.076224443487954	4.076371323284852	12.229815728884178	14	0.02428537530145868	0.03225965845189795	-0.02037832365696166
Si	2.7704467290881896	16.288088197195723	13.577127785851182	14	-0.015617407935643462	0.05450100502383891	-0.00810540952176682
Si	4.103201366184868	1.359801735696555	14.938540303320384	14	-0.0078040759782454635	-0.006259870122964527	0.01348364763045257
Si	0.16134908889008648	2.8552616518080103	13.451855639074706	14	-0.06777099380218717	-0.24704645446015228	0.22647375524098742
Si	1.4174504239812376	4.124613176577095	14.999805498604243	14	0.009397904166205258	-0.012634154432675643	0.040613693858123086
Si	0.00990133030866177	5.441798555202597	0.01403844458795262	14	0.009950948920569112	0.004901298071798283	-0.0056345773091045145
Si	1.384745189205305	6.794659404496854	1.3569604276254523	14	0.017480173740090744	0.003851001548517792	0.014048776579821119
Si	2.7513360355140293	8.144158338439892	16.317333596755837	14	-0.010319131202414317	-0.019006638968662656	-0.005889116735799175
Si	4.096820255008526	9.494179511660793	1.3664031665682441	14	-0.00035069876566819793	-0.021784461156550642	-0.0457985848467337
Si	2.7488390789667654	5.441896475067195	2.716133844190833	14	-0.014882328924613126	0.003503902330297802	0.0019082743686139045
Si	4.118493185039683	6.790057170860719	4.071524289987221	14	0.005365639692617026	0.0018010592767637294	-0.0030634719889564357
Si	0.0312201168295203	8.146524735167691	2.7236573537874924	14	0.014175017851040389	-0.01724260360850906	0.0294772082744337
Si	1.3837578305706024	9.508573731756785	4.079635318771472	14	0.01805198756329168	-0.028547239480136138	0.02222103483991179
Si	0.01733018403620889	5.4224104220120735	5.41518067200921	14	-0.01834817889617274	0.0029698837553030462	-0.008811177932147465
Si	1.4127241585166117	6.76557720471107	6.736184925354056	14	0.06332812380897128	-0.04490949662702649	-0.060061277389191134
Si	2.76365761847602	8.156333041604986	5.41643731027156	14	-0.017133845853466802	0.009369879118215645	-0.0008788037984266135
Si	4.10847271889576	9.510532129048757	6.793092686663276	14	0.03332332472284321	0.001135142998845377	-0.01931105783856819
Si	2.737496694650761	5.4215944231404185	8.141596101982897	14	0.0052049456101077715	-0.006215904221989995	-0.002527396529705562
Si	4.083650033220015	6.799473797839618	9.50260062001627	14	0.010583697939857552	-0.010784758375893133	0.009669927109076925
Si	0.13740441800024214	8.037605205779183	8.253942826632358	14	-0.11259924350109698	0.23021291370807875	-0.25501533828941925
Si	1.4165707771975933	9.566689171396055	9.517941398803384	14	0.06634557301269707	0.04760452922360571	0.07613582785075694
Si	16.289426435345238	5.436674082288603	10.855738908926892	14	0.014687182030813886	3.8566579802221184e-05	0.018600404328079263
Si	1.3599225035295601	6.792178767927023	12.21112935472328	14	0.014555541438422305	-0.01848856124665282	-0.036167224317458994
Si	2.739308212145835	8.168801504363874	10.873299204644907	14	0.009077544443314807	0.013972928972876749	0.024243209174208254
Si	4.114984389891566	9.512947485708857	12.236751719293245	14	-0.012059255283090535	-0.021875478284883884	-0.005645890172513167
Si	2.7367459756888386	5.458298052387461	13.586511772875216	14	0.01743466517592412	0.004498920089195109	0.011692872774969434
Si	4.107640400046671	6.814308657326307	14.93752846471953	14	-0.004887156992537468	-0.009078829995974882	-0.006769463197417877
Si	0.04435280266993587	8.147079614400418	13.605508226607343	14	0.010247397363982183	0.010070762428488011	-0.004570139706563211
Si	1.411488736224926	9.502437420241941	14.952950843393813	14	0.02329061465309339	-0.026806601178395888	-0.032839699812123355
Si	0.03329601795901062	10.824535112074804	16.31240496357104	14	-0.04921326982242237	0.0018272845510292396	-0.030250339644202224
Si	1.3885754879088537	12.207702159462327	1.337559238452983	14	-0.03726765739448237	0.034962661474969625	-0.05908065782008667
Si	2.7553181100077064	13.587442011588902	0.00946069091796807	14	0.01569171287939574	-0.006886448489484615	-0.00224174672863711
Si	4.1120304739761755	14.954354361453058	1.3548339345659195	14	-0.0269161302650342	-0.011721669154555093	0.017458319344869487
Si	2.738834932800275	10.86056962224709	2.713392087982072	14	-0.0016498782839390225	-0.009474265994213657	0.034162276388807526
Si	4.086865068774335	12.228493810712097	4.071556929942087	14	0.026804544294139768	0.017473745976790373	0.014489206921162484
Si	0.08992960364735425	13.47698840432168	2.826440571661156	14	-0.13323853434805366	-0.04620713348210523	-0.0005160208377537194
Si	1.3938860085655842	14.971735137419309	4.0801085981170315	14	-0.015108071971722127	0.04370416245294108	0.05815608834696141
Si	0.041289542905743	10.811772889722121	5.507714944054887	14	0.10346899139871914	-0.04008867415174884	0.013517586220678524
Si	1.3910332765102786	12.238106277420194	6.799588037681651	14	-0.0032593902143517196	0.009226668551883397	0.006798773798067566
Si	2.7424742877678563	13.59496552118556	5.432039208697602	14	-0.005095416523469462	-0.05352038545473442	-0.017856583558960422
Si	4.098746012345632	14.947859010434684	6.794022925376963	14	-0.0015652889189061506	0.017878695064713696	0.004296059879435425
Si	2.770283529313859	10.894596775195103	8.141889861576692	14	-0.009833449407438343	0.004046405552849046	-0.02034747039311988
Si	4.130259888768949	12.235233961391968	9.505880935480324	14	0.012041257545849499	0.037918661261543876	0.014641930577179281
Si	0.03080069340948963	13.591587285856908	8.157867119483697	14	0.003738644246027322	-0.0206326059731243	0.0284024862506118
Si	1.3928056260595132	14.954843960776053	9.505962535367491	14	0.0013662853671266894	-0.03914019339914622	0.003960016414092072
Si	0.04450947445329363	10.902968923618282	10.862870739065157	14	0.013953388572443626	0.010376466851053617	0.012571162352332016
Si	1.4335696656919104	12.238155237352492	12.20318152571336	14	-0.027078367010735536	0.013478505419812273	0.015830809677215753
Si	2.774543043423898	13.603158149856977	10.849178277998785	14	-0.021265097881880732	-0.010177720409806171	0.007683491138730518
Si	4.131222767437501	14.951367805582802	12.21403431070637	14	0.005292363190992805	-0.015452857195153982	-0.01745214869210113
Si	2.7591043447721852	10.876661119996125	13.592093205157335	14	-0.016855652257826776	-0.02044800061113767	-0.022055455657294252
Si	4.107281360543143	12.234287402700847	14.958042676352939	14	-0.0040214658312436105	-0.020504307817648917	-0.011990092549978551
Si	0.040728135682044364	13.540505756491306	13.571725873320826	14	0.04585772026909711	0.024907582788934512	-0.08809198181050953
Si	1.4252219972348796	14.905737148679854	14.92282416505231	14	-0.06471857756610738	0.02484150538220671	-0.016189221758844394
Si	5.448016466604607	0.002284796840634	16.30763953016058	14	0.0237197321310261	-0.015805355734546285	-0.0017288112172675683
Si	6.800322436666139	1.362770339591636	1.348704151042047	14	0.039930294064027726	-0.003949474882279464	-0.00040572041951936693
Si	8.137614027489219	2.7633801788596575	0.01245377477919861	14	0.02491323922063884	-0.019793654307159986	-0.04565743116465757
Si	9.549292075452371	4.064996299013981	1.3644512972672453	14	-0.03145798781307578	0.027319536689765427	-0.0008559209610772956
Si	8.144909057401817	0.037225868524901104	2.7580598662164673	14	0.02348139066784838	-0.022132588816898693	-0.05597733369866793
Si	9.553437349720378	1.3476384565156656	4.100443289998674	14	-0.0678686958043528	0.04121918916101796	0.014938121910060338
Si	5.461154048438253	2.7214215168791576	2.721666316540654	14	0.02693978443397956	0.009333369422669541	0.015727708353877816
Si	6.826777120085195	4.074233406241116	4.078558200260887	14	0.0072487172290934794	0.003585663479478511	0.01146327306988021
Si	5.455474696291534	16.306627691559726	5.438322400009346	14	0.020270337233515442	0.04086874750588177	-0.0020602266930346558
Si	6.826940319859526	1.3462806343932319	6.783806619503843	14	0.010563386207828382	-0.002514798113636836	0.01516232229397725
Si	8.185513161255368	2.7163460038974634	5.436820962085501	14	-0.006169881436759345	0.007774251156531746	0.00806812849462467
Si	9.53413081641702	4.080973556920986	6.796128202465834	14	-0.004266492168253722	0.0004725691578432169	-0.004906440282438578
Si	8.174546136420325	16.31460816052451	8.159058477836314	14	-0.0009006581936478722	-0.009788197953803736	-0.011298722329390732
Si	9.535958653889528	1.3614516854150414	9.505929895412622	14	-0.030601295520402437	-0.013055815705179932	0.003179943059959144
Si	5.47861642429167	2.7139143272599315	8.138315786518843	14	-0.009609506134053444	-0.020265195022875142	-0.007808703967821731
Si	6.816413934415176	4.0877626675331555	9.502878059632634	14	-0.0022836557453555237	0.006618025094061155	0.007806647083565612
Si	5.443283673149009	4.079994358275e-05	10.828908866026875	14	-0.02119593514876875	0.010072047981148084	0.0006833997940953594
Si	6.769330799520683	1.381291881980461	12.170639490711759	14	0.05222506259444383	-0.023338437212048143	0.03136388535835836
Si	8.177761171974646	2.728749186746619	10.854547550574276	14	-0.002430208748603964	0.009814166117537233	0.008241678103734667
Si	9.536937852535512	4.098729692368199	12.207636879552595	14	-0.00641876443174968	0.026363599731734372	-0.0170088901349076
Si	8.107666868899482	0.03106018105067592	13.531464488993368	14	-0.0035504393365924825	-0.007586046247096907	-0.01020497412619974
Si	9.398789243564321	1.519358891064487	14.807180804961362	14	0.12120576144976067	0.13371727415866524	0.08861623018528772
Si	5.447592147191347	2.722612875231774	13.575316268356108	14	-0.001420278578849799	0.013555381468884704	-0.007636697021903824
Si	6.796487241969361	4.089982184464057	14.9398295815376	14	-0.0273329064374302	0.017330278299926113	-0.019845590634626976
Si	5.456421254982654	5.455262536584904	16.296900985009596	14	-0.007629240816475394	0.0012364445484592112	-0.0025585069040793534
Si	6.816087534866514	6.775760870629324	1.354399823166199	14	0.012023516919140477	0.015843150982752463	-0.0077953342201569605
Si	8.155696562485094	8.12228956867954	16.306203372146463	14	0.02485898889838372	0.02348139066784838	0.021246071702511637
Si	9.500576942814567	9.461098917403898	1.365497407820707	14	-0.17589985648314269	-0.0966861584536365	-0.04969946583846237
Si	8.185774280894298	5.428089774158793	2.7134900078466706	14	-0.008777239341921513	-0.0013511158457378155	0.031037869203763578
Si	9.534963135266107	6.793761805738034	4.074788285473841	14	-0.019166047498511838	-0.024424729209810706	-0.0075346241406939445
Si	5.474128430497567	8.146116735731864	2.712706648929882	14	-0.002434579627648216	-0.004439784666831703	0.021238101276019175
Si	6.824932962635255	9.506158375096685	4.078003321028161	14	0.021082549404150216	0.009366793791831467	-0.005917656004852819
Si	5.466164281510214	5.430619370660923	5.438273440077047	14	-0.000463056068158669	-0.011616768057493052	-0.0067110991066505156
Si	6.819775849766395	6.796813641518023	6.795018444000382	14	0.006145198825685923	0.008807321274167244	0.006664047879291807
Si	8.182983564753238	8.152318327156443	5.438958879129237	14	-0.005531218875234562	-0.005953137258270862	-0.003138291153772745
Si	9.541735925900845	9.510417889206726	6.796944201337488	14	-0.005202631615319638	0.018148146902265218	-0.023654168945362326
Si	8.182347085633348	5.446629268522794	8.154244084493548	14	-0.011064751745257258	0.0009001439725838424	0.0028143318834340874
Si	9.542894644298594	6.811191541636584	9.5076434930431	14	-0.0038126920792475863	-0.005392379187946566	-0.00022548593657698655
Si	5.46324300554969	8.154227764516115	8.15798135932573	14	-0.0006479185406773159	-0.009722377657607946	0.014874615608652681
Si	6.824932962635255	9.515917721601681	9.515770841804782	14	-0.006027185091491126	-0.01098247637501252	-0.009153906271323205
Si	5.443316313103875	5.436282402830209	10.866200014461509	14	-0.008148604091145307	0.0006412336668449308	0.009418730119298458
Si	6.817409453038596	6.794202445128727	12.220170622221216	14	-0.016337317425284926	-0.01809801034852233	-0.0034797339402884097
Si	8.187765318141135	8.16114743494775	10.878178877897405	14	-0.012147701306103629	0.007967855387138897	0.012689176086526817
Si	9.54886775603911	9.516766360428202	12.251015379569775	14	-0.010066134438911745	0.006000445596161586	-0.008737644319991232
Si	8.169437983483764	5.4306846505706545	13.580163301653739	14	-0.0005239912642461786	0.009780227527311279	0.01607866423007803
Si	9.521564433793532	6.776886949072208	14.952118524544725	14	-1.1827084472681163e-05	-0.033626972261152695	-0.049881242984596834
Si	5.478714344156269	8.161343274676948	13.587915290934461	14	-0.00035275564992431647	0.012027630687652714	0.005357155045060537
Si	6.823904804056969	9.512213086724365	14.95957675423165	14	-0.052840328097555254	-0.025295562581744858	-0.002924375191136425
Si	5.43802864041555	10.845277803392275	16.313841121585153	14	0.008557666947580866	0.009681497083017594	-0.0030251625196862295
Si	6.77700118891424	12.188770985639932	1.3681575641423023	14	0.04537975179008158	0.06519808870831498	-0.022487144240547114
Si	8.113460460888232	13.567286839459022	0.01972595672338797	14	-0.06085060672247661	0.023261561162975716	0.13451200281312303
Si	9.43736967021617	14.897707719782767	1.4515901847735393	14	-0.015566500050304527	-0.11054338768710659	0.10490418238842579
Si	8.181645326603723	10.867978892001718	2.717227282678851	14	-0.006158568573350694	0.002937744938801195	0.0122184067024077
Si	9.553518949607543	12.215127749194387	4.08404171267841	14	-0.06382023336724763	0.10474348830591655	0.015004456427320161
Si	5.450089103738612	13.583345697253193	2.7188429604447277	14	0.02653714934084437	0.001383768883303696	-0.00046254184709463935
Si	6.808090745924296	14.945492613706886	4.079341559177676	14	0.01434393947057412	-0.05759841560302129	0.030060849182107306
Si	5.456486534892386	10.869333450128662	5.423144820996563	14	-0.0022119219069233922	0.012357503500227712	0.00184708206199438
Si	6.8188129710978425	12.231251886898292	6.773247594104627	14	-0.010151238025008644	-0.011857680625990925	-0.017125875426974344
Si	8.188499717125627	13.590559127278624	5.424988978446503	14	-0.019918867136251198	-0.011936870669851487	0.01970675094733898
Si	9.525464908400044	14.9396827017407	6.8183560117297155	14	-0.009947092262588888	-0.01936659371348339	-0.021436590606734605
Si	8.166353507748909	10.870981767849408	8.135851469926445	14	0.0002702231691475631	0.02821710955702912	0.01204717108808584
Si	9.511266528033246	12.231676206311553	9.496823348004954	14	0.0226136426222984	-0.00838566000166296	0.025089102824536972
Si	5.4710765947175775	13.592419604705997	8.137320267895424	14	0.008325753247703509	-0.021222160423034257	-0.00978459840635553
Si	6.814096497619676	14.951498365402266	9.501686701280017	14	-0.00195995358554888	0.04573533565585806	0.02808109808559329
Si	5.471125554649877	10.875665601372708	10.877885118303608	14	0.002893521927294648	-0.03248180195155874	0.006500011359866359
Si	6.8240680038313	12.237486118277737	12.239069156088748	14	0.001179108899819909	0.06668932979400087	0.003388202590891138
Si	8.169405343528899	13.600824393084045	10.866493774055304	14	0.00968998173057408	-0.020344899287799735	-0.0023857286265654026
Si	9.511968287062869	14.983338641374244	12.221280380686668	14	-0.04539106465349023	-0.01697392310255359	-0.09180671477705947
Si	8.175851734614973	10.873348164577205	13.602048391391525	14	-0.0006941984364399813	-0.11638391053235497	-0.03538457985800592
Si	9.495827829381534	12.261509125059257	14.967850982790232	14	0.08393167629197792	0.03059615330976214	0.03948857817002629
Si	5.468628598102613	13.599045515543835	13.600775433151744	14	0.02147155763908862	-0.008046788320467443	-0.0005299048064825191
Si	6.8195310501048985	14.977904088889023	14.954713400956587	14	-0.10092179735804845	-0.03238641394418125	-0.023053044521511707
Si	10.343781216850545	16.014075776093975	15.878930042970474	14	-0.05261767037683044	0.3957471019825125	-0.033562694628148995
Si	12.279216300574172	1.3089127820646627	1.3465776579825142	14	0.24138436632412216	-0.21369356202612738	0.03090262906392379
Si	13.640057618833216	2.7147956060413185	16.318606554995622	14	-0.04933231199874522	-0.0589719000650444	-0.013840774159421138
Si	14.975880411687317	4.081463156243979	1.3728724056227248	14	-0.005735621748186336	-0.001848624725186469	-0.011223388943510394
Si	13.610159420175776	0.0668955874982769	2.8826302539633195	14	0.16285098276232715	0.187121702763461	0.1611378552875125
Si	15.060597414542539	1.3994511208702716	4.142385632001742	14	-0.008676452013371708	-0.1708108677229736	0.009140536523658436
Si	10.899345888628135	2.6808337330030376	2.715187285499713	14	-0.009490721068262604	-0.10584083605655574	-0.14133623055386005
Si	12.264691520658713	4.05156495758654	4.064784139307351	14	0.02739769829149793	0.04131586272105552	0.01830781254264641
Si	10.876204160628	16.318639194950485	5.495866640438456	14	-0.03634000259497294	-0.002483944849795059	0.009349310275654459
Si	12.262488323705245	1.3653815359809318	6.8092005043897466	14	0.0429719116577629	0.023972986005060686	0.00920815659357833
Si	13.627001636886735	2.723020874667601	5.44782062687541	14	-0.02359657618619101	0.0014444469688591908	0.008530413231187296
Si	14.985003279072421	4.0809245969886865	6.799392197952453	14	-0.022277084935891017	-0.01977462812779089	-0.023895338624392217
Si	13.621322284740016	0.00242188465107204	8.161065835060585	14	-0.007393213348085802	0.0010523534075366089	0.005791671844165563
Si	14.989409672979358	1.3548176145884863	9.516374680969806	14	-0.030341099662003452	-0.023674480677391495	-0.01857366483274972
Si	10.89294845747436	2.7263175101090877	8.155076403342637	14	0.00551502091171763	-0.0108744899515663	-0.022778193362787878
Si	12.245319707445622	4.095759456475375	9.503286059068461	14	-0.0031727439650627294	0.015563414723920354	0.004118139391281178
Si	10.89131645973105	16.31813327565006	10.860341142563026	14	0.009636502739915	-0.01998674431670311	0.011901903637497472
Si	12.256384652145266	1.3770242078817054	12.188526185978436	14	0.033979470800544996	-0.05914879211107058	0.051398709344548224
Si	13.605932546020604	2.7261543103347563	10.836579255420432	14	-0.002036572524089293	-0.007752396761310488	0.03265149490268851
Si	14.911155381187642	4.1021568876291505	12.212385992985627	14	-0.06859477594676261	0.0951200982031343	-0.0856502030879649
Si	13.667442540965958	0.07424773733188844	13.554035017783345	14	-0.0874787731916542	0.04875329908064787	-0.05147378561989655
Si	15.02691298112062	1.4550744999555063	14.901950913915375	14	-0.05795734190571397	-0.10135708548874951	-0.0329273745035404
Si	10.927138810196704	2.7640819378892805	13.545222229969472	14	-0.05085826300625311	-0.01179314588245521	0.04978354098243121
Si	12.250640020088815	4.075016765157905	14.978834327602708	14	0.022304338652284587	0.020866833667789794	-0.028830832396948468
Si	10.884070389750752	5.435368484093956	0.0017788775402079002	14	0.01407834429100282	-0.03737153004941636	0.004638273997547134
Si	12.248697942774276	6.784851098059561	1.3617160690494576	14	0.0185124725261302	-0.05666510437180754	0.021097976036071105
Si	13.639763859239421	8.129062359314275	0.03328622597255076	14	0.028389887834543073	0.0013793980042594446	0.04124978531432772
Si	14.993913986750892	9.50207838073841	1.374021332034015	14	0.04795651354193398	-0.054574795746527155	-0.0305555298457038
Si	13.610583739589037	5.434177125741339	2.7224333554800095	14	-0.013745900373107675	-0.03835549205543703	-0.011221074948722261
Si	14.980172565752223	6.789485971650561	4.068668293936429	14	0.0055823838711055096	-0.00464444465031549	0.04185785172254274
Si	10.908534035922969	8.150098810225542	2.725256711575936	14	0.01374770014683178	0.007205522659714992	-0.02958545180841193
Si	12.27440190723141	9.518724757720173	4.07483724540614	14	0.03772891368891695	0.06099433150987287	0.051693100903705186
Si	10.891528619437679	5.41712274932375	5.41454419288932	14	-0.012317137146701388	0.0023618173470880254	-0.005925112210281248
Si	12.239901474937835	6.793255886437608	6.7624274490664815	14	0.03085917738401329	-0.029171760962400105	0.016345544962309395
Si	13.632256669620194	8.149331771286185	5.437245281498761	14	0.023983527536873293	-0.07368427892799573	0.03100675882938979
Si	14.997716541492805	9.455142125640815	6.846507972801812	14	-0.06406217437787357	0.07111934426061602	-0.04826427484875571
Si	13.586740252559277	5.430896810277286	8.116675496442554	14	0.025777130608208597	0.01413336594485399	-0.024294117059547184
Si	14.909882422947861	6.7708322374445284	9.498390065838532	14	-0.10363174236548452	-0.11562774845769941	0.16538763527118525
Si	10.907310037615487	8.154064564741784	8.14572505627347	14	0.013333237969223909	-0.0010379552177437795	0.011384340136551664
Si	12.258522569189003	9.512033566972603	9.518936917426805	14	-0.011915016274630227	-0.017213807228923406	-0.020814640229790786
Si	10.903376923054111	5.465903161871285	10.869872009383954	14	-0.0025258538665134727	-0.005907371583572226	0.0005417318909552003
Si	12.264854720433044	6.8147982566493	12.248975382390638	14	-0.005225514452668957	-0.04974703128688511	-0.013988355604797637
Si	13.625304359233693	8.1622571934132	10.876938559612487	14	-0.0034267691706933597	0.007231233712916472	-0.042946457715093436
Si	15.053318704607378	9.481254089533776	12.193063139704838	14	0.11123141547077821	-0.06876652578214851	-0.06577967273173248
Si	13.595716240147484	5.441782235225163	13.617454450088372	14	0.02129646536678654	-0.021756178998029015	0.013935390835202587
Si	14.985900877831241	6.79443092481279	14.953081403213275	14	-0.005317302912598242	0.0013102352711474611	0.012006290513495483
Si	10.894792614924299	8.148809532008327	13.622203563521404	14	-0.13317682782037013	0.012699203397275392	0.0034681639663477442
Si	12.257543370543015	9.45794916175931	15.020319710237647	14	0.0865794005506664	0.0508009273576138	0.03463433132558671
Si	10.817794961394934	10.810956890850466	16.26217207303196	14	0.07977445609983048	0.012281141672219314	0.07998760073087077
Si	12.371146733454824	12.297168275750582	1.3537551840575917	14	0.11842459682495649	0.30863316863578727	-0.17878566509447688
Si	13.967044686682806	13.819414170822984	15.883907636087569	14	0.19726599880410522	-0.16952274395757944	0.3084241377732592
Si	14.6692443556968	14.611390035696461	1.7341281620863398	14	0.23667461559867492	0.34254141981896413	-0.36162082106818705
Si	13.678050526297472	10.87480064256875	2.746668521968163	14	-0.19045514081103299	0.0040577184162576985	-0.023523042574034772
Si	15.006937328742508	12.178211960240716	4.175662065987832	14	-0.06323839223329811	-0.017953514229530006	-0.03611914464797223
Si	10.956269969914787	13.625239079323961	2.7428006873165183	14	-0.057647780825168145	-0.23322033560105598	0.09207565239354697
Si	12.257331210836385	14.973987294305077	4.17928510097798	14	-0.041907731165753616	-0.0003915793402585524	-0.0561591108448024
Si	10.91163483163526	10.865416655544719	5.44339791299104	14	0.04361108844035171	0.0062087051270935814	0.002144044726471483
Si	12.270893112083291	12.218424384635874	6.814210737461708	14	-0.03538972206864622	-0.045111585505190135	-0.06696083851580852
Si	13.635863384632911	13.582774498043035	5.477571945735951	14	0.021480299397177126	-0.029324484618416902	0.004029950478800099
Si	14.985639758192312	14.955284600166745	6.817083053489933	14	0.02303581811586671	0.02349553174710919	0.012641353527572062
Si	13.636467223797935	10.853323552266792	8.165162149396293	14	0.014972060500286294	-0.02344745207762242	0.08025242457884602
Si	14.981755603563233	12.239575075389173	9.51291484575399	14	0.017180639970293496	0.006068836997677526	0.000916856157164805
Si	10.899460128470166	13.580000101879408	8.158927918016849	14	-0.009919067214599274	0.01506436318127961	0.04394121836345873
Si	12.25308801670378	14.959903153780312	9.504673257150275	14	-0.0021718126639290822	0.002695546817643246	0.009111483033540764
Si	10.867946252046849	10.866085774619478	10.842503407228648	14	-0.01130283609790297	0.003982385030377359	-0.014236981489255958
Si	12.218114305064645	12.25046050033705	12.15201839646059	14	-0.03751911149479285	0.13526636511405446	0.12835934778200866
Si	13.620816365439591	13.609784060694814	10.858431705203353	14	-0.009504862147523418	0.01773445605625339	0.011941241548895738
Si	14.983567121058307	14.929972315168007	12.248355223248181	14	-0.002426352090623742	-0.008976757114765003	-0.04498534423397086
Si	13.463785542578304	10.713347105823095	13.428942390758634	14	0.13741323805637812	0.17972591831005505	0.19024945238542113
Si	15.032249613741245	12.031495363117148	14.80148513283721	14	-0.05269043265739062	0.08558901078134537	0.027086337437228
Si	10.843352046055168	13.554557257061205	13.53921647827409	14	0.10466609803578009	-0.03780758951171347	-0.11467849637350074
Si	12.212989832150653	14.99136807027133	14.775569008673449	14	0.2747424009687874	-0.04315291747230132	-0.29166001686482973
H	15.695167097073766	15.678292240407941	0.9195311764928431	1	-0.004620276260306098	0.06293448758445663	-0.022542423004930295
H	14.92404816335979	14.859225212995518	15.240394605923003	1	0.08666861790527555	0.17010612775472103	-0.007305538656668752
H	11.24572108966825	11.111995194581427	1.5317947138685093	1	-0.1128111025794772	-0.06980808054734049	0.15065340201301267
H	12.562090469422095	9.7197542397411	12.535945865574268	1	-0.11706216811581002	-0.1741494479811859	-0.19134062948329197
H	9.570116366657004	15.012306601317997	15.060874854158902	1	-0.2514379023469652	-0.31443126824325324	-0.28900972150082105
H	0.9923949797384046	7.095338668724288	9.238135385712885	1	0.06502685309399313	-0.09942181451427405	0.11181839881536802
H	1.0293629926198629	3.8041214597458777	12.489695049528864	1	0.12799887881612393	0.16233701880882956	-0.15178468835387782
