72
config_type=liquid dft_energy=-6958.924702391354 dft_virial="15.915894456691564 -3.4149823039293965 -3.367237007824127 -3.4149823039293965 6.705826837985093 -7.607019301972054 -3.3672370078241265 -7.607019301972054 -15.407407053170447" pbc="T T T" Lattice="10.914011036500002 0.0 0.0 0.0 10.914011036500002 0.0 0.0 0.0 10.914011036500002" Properties=species:S:1:pos:R:3:Z:I:1:dft_force:R:3
Si	10.258548275680921	1.266527324741679	5.047741018392287	14	0.22892247594789647	-0.4698684688149334	0.10215438524852744
Si	4.109670855794076	0.8337987925565942	10.32475266662833	14	-0.026901732075241363	0.10744571999739218	0.31989383860643983
Si	4.876914917648989	3.7098688035050076	3.776542496926986	14	0.09599273134879256	0.4627035696192768	0.35930374095366957
Si	9.746091801473101	3.8266487215955576	1.5174622664928872	14	-0.058001050696156485	0.17973620273133564	0.015050993433614839
Si	3.067655652084238	9.276407336517321	2.8889823774056964	14	-0.5603186684250827	0.1494408687440308	-0.5239966635673509
Si	4.712189749075095	7.056868568068464	5.336678546572588	14	0.00978459840635553	0.1349611749125529	-0.29896118464245425
Si	7.045168748237335	2.856818786881131	9.376466989699955	14	-0.06534464171156343	0.14508850165808418	-0.2938629399031326
Si	4.344987847752052	6.3794140750108355	10.54259632691687	14	0.08438290527566392	-0.09240912475357017	0.10467895356238084
Si	4.457227537251418	10.861700181602057	6.098825765273457	14	0.027057283947110326	0.05632623269061203	-0.13811437847718253
Si	7.643649457434849	4.956106981729833	8.355537655312634	14	-0.08328452908289664	0.0016429362995746223	0.1432367916065135
Si	3.723554973344778	3.544750730533799	7.484119358114328	14	-0.08047842473648703	0.1261754509230749	0.03989455570007766
Si	2.4432650806860727	9.54555776268845	5.469065500445334	14	0.32180596963303393	-0.018156631549821705	0.1571896659578931
Si	9.969436123324035	9.52422087111209	7.393402098378941	14	-0.3291888985598391	-0.06819548329054363	0.29122472873412864
Si	5.340804042744385	9.768902084539384	10.68778541573543	14	0.24205722458640494	-0.13981465042539643	0.18902072115292237
Si	1.7074642846273158	1.7760915860248276	2.6873787655394685	14	-0.04385894299321399	0.2561468817408164	-0.43183076537706666
Si	7.158325214663767	2.2932301709673073	6.963979420136812	14	-0.182277997450834	-0.23893641694880918	0.1383938576254826
Si	2.3221850422471415	8.74954436774132	8.040308274545405	14	-0.18019257392566193	-0.08028584894800794	0.005417318909552002
Si	0.14510505093357848	8.898815296687532	5.398091686674974	14	0.31481153472010315	0.2438372007995435	0.09773079854521266
Si	5.801615416727489	4.9303280876616205	1.9787102009174502	14	-0.18352369797844578	-0.19538729214667305	-0.2821541262751782
Si	3.6230587597206863	4.234341603864015	9.763204970778332	14	0.13364991119927738	-0.11689221805414823	0.04385174389831758
Si	9.587347510947207	10.168987901115402	3.9755813161996363	14	-0.3758858276054326	0.09455214103791358	0.17468783743522487
Si	3.8117074404865887	1.242581984527598	7.99414200786101	14	-0.04588857353293888	-0.23126680977880748	-0.04123153046655467
Si	1.6915516565360986	1.2632422074196927	5.325546255315358	14	-0.3852788466715296	0.0022011232645787705	0.7717946521125824
Si	5.581185135823298	3.79261883518375	6.085892662195203	14	-0.06098327575699624	-0.045835094542279804	-0.3311475665927279
Si	2.529529423918569	7.16336748776263	6.2285497004532955	14	-0.17266926264837665	0.23245286066299178	-0.09677794691356578
Si	6.995520912032296	1.0368670647039206	3.5808651930535773	14	-0.03718409647157756	-0.10219757981790593	0.24897812588717952
Si	3.4655914084860644	0.5643547794885858	3.901180502963816	14	0.7449703103074774	-0.38598692907669835	-0.2829334282977151
Si	6.607855240015816	5.910842839180781	6.343245042435874	14	0.3261904755354824	-0.1999666878323888	0.0006124372872592724
Si	6.6329356373776935	8.74025654434926	1.5596012631048137	14	-0.28963450009361713	-0.05385308648316159	-0.06881820499908348
Si	8.019702621708493	4.771354602903961	2.7502543831207453	14	-0.2075324223474565	-0.04065688842750157	0.2261333408965998
Si	0.27988544742662796	8.610609007246676	9.191452674609206	14	0.2017919154991619	0.100410404509871	0.1048087943810483
Si	7.640266114013535	9.547544112697093	7.460905256639693	14	0.04843576757360959	0.06362045848387213	-0.03038326578925388
Si	7.316589288704054	10.42512882613102	9.623025413025525	14	0.03860206105563923	0.053026990343798014	-0.3474311479168218
Si	9.021521522770902	0.2327009035125275	0.16220621482667033	14	-0.024982916174814854	-0.22512623894269781	-0.04431711396126438
Si	3.5917246340348954	7.15837978471895	1.8272237277308303	14	0.5755177575251381	-0.20864622517214468	0.3499593157781234
Si	6.721742945181695	6.456281454740904	9.91220304944863	14	0.10546468334821808	0.42777047585548883	0.06158619995457096
Si	0.2321792137849828	10.161806481853384	0.08340159813762206	14	0.15827904328203984	0.32635914004448413	-0.01096113620085529
Si	6.304674927432883	7.704538725007482	7.907921320672661	14	-0.19396135713611892	-0.04903072134469185	0.26980639297516706
Si	5.20863536909237	2.857124379190153	0.04384376513582781	14	-0.036845996121978086	0.10402692125319128	0.18036818041902805
Si	6.769524485499491	0.19350323287493773	5.853271430963243	14	-0.03201000412531157	0.1586827068173031	0.04285621191835624
Si	4.3562838491748295	8.278921297836405	9.146115872763586	14	-0.024120310339905172	-0.22656451525878865	-0.37732590369524754
Si	10.46030468370166	6.552684914226309	10.064213395165002	14	-0.33668212790487867	-0.003676680607811753	-0.06287612349368926
Si	10.488037185745407	0.9589006440624755	7.434449693887217	14	0.14033915591070664	0.19995974584802437	0.1306697430226937
Si	10.623600116829772	2.91145432612985	8.903639289565666	14	-0.012240518208160973	-0.07005464954754269	0.10758173146882802
Si	9.04098120444898	2.4937860377740315	10.591360128227953	14	0.0932691594831597	0.21898412544339607	-0.044401446215765236
Si	1.9146776981663047	1.0772521797422816	0.3859925541245846	14	0.06331321139811442	-0.17970020725685357	0.10804298776326256
Si	9.996535612727666	5.05409297281553	8.10571594268715	14	0.03320608232024446	-0.10266552098617286	-0.2229022328407697
Si	10.843877601579452	4.733450242574197	5.801287996396394	14	-0.23986278619565854	-0.27647661150722724	-0.04698052196240578
Si	0.610321319771013	5.087282480377526	0.68545664594959	14	-0.036941127018823565	0.08152846414923551	0.08105923742830849
Si	0.7378679097490702	6.606872979022532	4.647611545772125	14	0.24700891632247812	-0.16129135027512537	0.04338920205122294
Si	1.8215593560028867	5.828070979479964	2.6066369118914414	14	-0.0694247287441064	0.16371153171298072	-0.10390170842410007
Si	5.073159750096296	1.7575268532517414	2.479543253371399	14	-0.15075727466794664	0.12380154938098217	-0.0494066169424975
Si	10.702650298767143	3.133379826546041	3.5935145318448813	14	0.609216977845787	0.3787212425524919	-0.14002882349856474
Si	2.555799448483424	3.8295409345202303	3.5754954996236195	14	0.045751276508842975	-0.02954122879690538	0.009359851807467068
Si	8.393311047509961	7.446771612347425	0.3713143006815957	14	-0.09085951957711692	-0.661306028968795	0.4322858510187328
Si	1.8322005167634743	0.14868048094913588	7.475191697086472	14	-0.25281627190909656	0.2048093647028877	0.10575033314928653
Si	5.712164182272335	7.169686700152764	3.093303578020013	14	-0.004304544526991914	0.3890856252085408	-0.40146909687250204
Si	8.083953404680368	10.456615747971323	2.190180078760674	14	0.14628535118461308	0.21795054110469655	0.03457545301375532
Si	8.39621417444567	2.81254064410605	4.157332341990471	14	-0.4674578004667626	0.0011770520155637905	-0.3374028087261162
Si	7.772565755797987	6.561110530746487	4.32001659050054	14	-0.0495647399196866	-0.2572390872808153	-0.24324507524431335
Si	10.473499723044789	8.263117809855553	1.4134953973591882	14	0.2541743297391988	-0.20568174073801393	-0.20733470434833712
Si	1.9838288720935686	3.589541831827595	5.871345033239687	14	-0.21182719667423186	-0.013612717117524004	0.13731605027527652
Si	9.76498395457728	7.74919885816884	3.6492960422524323	14	-0.06351787138159821	-0.31618810450851037	-0.10970366468954623
Si	1.5486435960241676	3.266825439489326	10.362373262671145	14	-0.0721454723938871	-0.06349447432318488	-0.1479537414268572
H	8.064002592505647	3.1059529168113165	5.701577591566929	1	0.344760540820784	-0.04486475939445592	0.3192217516757531
H	5.160133504046165	8.473452630550982	5.928447138982655	1	-0.11576196015541114	0.03242575185557952	-0.13763229622965473
H	4.390280993553527	5.692147886031393	4.464452612557581	1	-0.04649586860955786	-0.1994964326693337	0.17482899111730102
H	6.850615587500686	0.928879473904375	9.15152922223769	1	0.020445429505817528	-0.009176789108672524	0.06709505021352023
H	8.402151396449527	10.000093580325565	4.972259718063853	1	0.1524529186265843	-0.0969170437113858	-0.10860940226529119
H	8.299657918805755	6.253051655230237	1.4574352057921371	1	0.162969767828118	0.368844084354611	-0.22466909641677546
H	2.9473068523847528	10.03603341866876	1.5697076373246128	1	0.42984972872789257	0.40606700451652283	-0.45518411499997163
H	1.5506517740548837	9.339959622782862	2.693807118039967	1	-0.49975139750888653	-0.33321499238065905	0.4541392177978634
