72
config_type=liquid dft_energy=-6961.063228043473 dft_virial="5.537260715808623 -0.20649840565529032 9.617096268003896 -0.2064984056552903 7.913782829448408 -3.980764062776839 9.617096268003896 -3.980764062776839 3.817236423616292" pbc="T T T" Lattice="10.914011036500002 0.0 0.0 0.0 10.914011036500002 0.0 0.0 0.0 10.914011036500002" Properties=species:S:1:pos:R:3:Z:I:1:dft_force:R:3
Si	9.532810197797817	1.7636168714101084	4.840669486996773	14	-0.2589684127191469	0.4545215411589695	0.14252922342240876
Si	3.5783331424931095	0.885507194045324	10.51855276060346	14	0.11153686278281182	0.2066831862602116	0.19362042857066727
Si	4.0017531146651635	4.525996720792405	3.7021853397353115	14	-0.23090376970760254	0.03039946375277081	-0.32173320735247374
Si	9.423746485510073	4.188721037731445	1.4327040567834282	14	-0.19925474876923976	0.014125138407829517	0.28615116660588047
Si	4.42544593711313	9.408204933794096	2.2770556066112144	14	-0.529867268344845	-0.2224412336568672	-0.023269531589468172
Si	4.8529586634238715	6.495386356284683	4.60072495435932	14	0.06977517039924261	-0.14704459858565283	-0.09254385067234593
Si	6.583047692929852	2.1095037091788664	9.948852298509197	14	-0.2909287945117796	0.14101021439926528	0.17686222120447412
Si	4.011739434763561	6.175191100495846	10.378984387468698	14	-0.3807339037971038	0.06555958611632781	0.20903291941229493
Si	4.398368275731574	10.01507851747868	5.727585679866909	14	0.003261961319671868	0.14634860037548872	0.07342793972757697
Si	7.767425256599796	4.010015021019794	8.915655615716851	14	0.07653614894910399	-0.12100907189276934	-0.42003067751024703
Si	4.38618823941484	3.323163564459739	7.338068062423885	14	-0.19672246713942593	0.35895946995130174	0.07929854450507108
Si	3.2577013262628123	8.073028479632832	5.0163741506733865	14	0.07170864159999396	-0.031915901670594146	-0.11032715772968213
Si	9.936792316313865	9.738779414078644	7.923320990245162	14	0.07936873568031114	-0.5306635396624948	-0.01907143082273039
Si	4.847709024115315	9.899859302966348	0.028499757019612455	14	0.08557872636006478	-0.022703631308503582	-0.15563286168654344
Si	1.7325883380333387	2.1663875347011046	2.4820862179429035	14	-0.008928163224214206	0.08916387561847927	0.16194646791069905
Si	6.123153095873815	1.4685893250714404	7.729379014126557	14	-0.1528627528146159	-0.28022682572719526	-0.08197532225387724
Si	2.4123675154417414	8.84157130880109	8.34313933877517	14	-0.10153706286115988	0.21711878853362865	-0.06519320360820671
Si	10.5973846623201	8.203832901905285	6.256391342607406	14	0.07697015152714498	-0.26289269076928895	0.233724015133273
Si	5.897091185274791	5.881735171746434	0.903540414480933	14	-0.1837165308774569	-0.09251942517180452	-0.1036278857075043
Si	3.0788861694407967	4.344693169454066	9.11678992510851	14	0.3662814636820194	-0.09595442187952234	0.17709516334647954
Si	8.403188227497994	10.646410399896059	4.654094468327806	14	-0.08916001896049904	-0.09911559587064442	-0.05274519720070979
Si	3.8194891303556133	1.215777173421954	8.242588555095896	14	0.26657605625093306	-0.29625072541395414	0.10430022974872302
Si	2.290250645954343	1.279427685786822	4.599950059575729	14	-0.32899066633965574	0.2485924600891573	-0.04880574962917889
Si	6.622818349146858	4.0071337221061585	6.842179056969471	14	0.3545230277213862	-0.005006199168860324	-0.17219695060106543
Si	1.7526810323515354	4.945662273167903	7.015100647831778	14	0.4359743587110173	-0.2807716429445346	-0.17774822409779714
Si	6.112730215333958	1.9171770066936633	3.2840914049490695	14	0.1569639229107841	0.0769896919275781	0.006609797557036682
Si	4.36610645910768	0.36303820611261783	3.762288798513317	14	-0.059996228424591395	-0.11471500606904683	-0.018741300899623378
Si	6.540799556207561	6.311430700264476	6.252549610722559	14	-0.1647651706731774	-0.04353421239127928	-0.29759412794373147
Si	7.518302040680647	8.51024376175502	0.9699619942479683	14	0.7119061530009051	0.2643224824378233	0.026871650142995633
Si	8.15043064590369	4.8852750501029485	3.4009804631499847	14	0.2731336603699707	0.0005502165385116889	0.05444804025424386
Si	0.4096977860958626	8.819448608430104	9.615047270957845	14	0.35726331177160003	-0.06756633381870338	0.005779330538628852
Si	7.608320803709699	9.498660257264609	8.220007466261377	14	0.3519511510696421	0.07559126774394957	0.1560820337859733
Si	7.044077347133685	10.466001797462713	10.286608198055761	14	0.06774296875419757	-0.06358523434098609	0.05487818617430463
Si	8.911617431633346	0.4154614753242382	0.5149448687241431	14	-0.023940332967494808	-0.2972853381947817	0.08827144496185586
Si	2.316597068596454	8.17054516824396	2.863345365480958	14	0.4596197858982911	-0.08071548064700469	-0.19551610452321247
Si	7.402471641550273	6.064970503038233	9.990434680558263	14	-0.10611105922570331	-0.019680782783605487	0.11981119392411234
Si	0.04268360576264786	10.153719199675338	0.5992228619479961	14	-0.13735975906571904	-0.2774734290398486	-0.1276620640191845
Si	6.465198201757725	7.476424980333596	8.307101274332647	14	-0.09315500240694513	0.08739238405289723	-0.050768788541111956
Si	4.517352824051496	3.0035467512558367	10.907167951580115	14	-0.40071961967167885	-0.03394707487351113	-0.09779096240970413
Si	6.653792312468445	10.520266260336191	6.345711608930122	14	-0.023404257508243934	-0.03124690006629162	-0.21795748308906096
Si	4.4302808440023	8.21551089371434	9.31829531087541	14	0.155712565951468	-0.04786755329785686	0.010871918846246153
Si	0.45810142504274015	6.454098652533604	10.000126322358675	14	-0.04428651780795462	0.41061297583307665	-0.1582206791912725
Si	0.12163447019958522	0.8440252208977949	7.6655211355519945	14	0.14684508081280934	-0.14570016761374738	0.30180122757908984
Si	10.24748146848991	2.837719267567256	8.705691871396665	14	0.008534526999699534	-0.04025245356064228	-0.20790497550834597
Si	8.818128013094688	2.6326340861803845	10.67749350332801	14	0.35357686096357177	-0.06573082173064967	-0.07170684182626985
Si	1.4378663840036927	1.1485796074702237	0.4379978167135071	14	0.05800002225402842	-0.01334120839571637	0.05750251337457977
Si	10.458984088366243	4.236666288214789	6.677934104881182	14	-0.4818318218695824	0.634204264899646	-0.07899978206686988
Si	10.367470105825191	5.12045015991745	4.310783337163661	14	0.23503090796750425	-0.7224188884339267	0.4206441432396344
Si	0.6956983539062415	5.093328842491747	0.9571784131209158	14	0.11131909016219527	-0.03010558641467789	0.08674395129115589
Si	1.8405169931732874	7.309778945817278	6.671483924358611	14	-0.14351781341800568	0.06810857993072261	-0.21553241655109728
Si	0.2969811543142015	6.775188857227434	2.791345634673167	14	0.5363785925681199	0.12126721086691221	-0.3390498587942031
Si	5.536655970794378	3.792968083536919	1.983534193795583	14	-0.04148581278271731	-0.2627764768088182	0.45413793224520344
Si	10.59264798153026	3.0168072746651844	3.1502201455753607	14	-0.005338643086755471	0.27430197062744605	-0.28746680119820023
Si	2.84335089726209	4.032050409302488	1.6852979282121843	14	-0.13514089517443126	0.4996634657069374	0.2686187994277907
Si	9.283392303580682	7.235148938349691	10.637831987221368	14	-0.2561977896261553	-0.1903877778516451	0.04363757082514924
Si	2.3955817664676045	10.824559802044847	7.025294334139868	14	0.1421597555879035	0.14885465673103707	-0.25718046607951595
Si	5.974591577644977	7.533548914098637	2.6635207374136796	14	-0.40116236400780836	0.18624084208077826	-0.08202854413400432
Si	7.6749180990544215	0.35478721376902383	2.5243670966983043	14	-0.2077908184321314	-0.056704699393737824	0.07268103363207397
Si	7.511655407959418	3.0702313586888517	4.842513954861941	14	0.14950180394011833	-0.00921509857794273	-0.08288575064774169
Si	7.673313739432055	7.030696769602937	4.284884388974047	14	-0.01296119902939848	0.012138702437483112	0.031170024017219192
Si	9.79324032915078	8.44052505925386	1.8499466987088233	14	-0.1482895277816685	0.17260344235218084	0.3116133368123709
Si	2.9484091674994386	3.4247075231433355	5.486091357662273	14	0.05502216807223292	-0.04107597859468571	-0.08351258612479379
Si	9.442092938062428	8.582287148606959	4.263187335033485	14	0.041219960492614	0.06183971093913756	-0.08254405075069401
Si	1.1311608458559697	3.2585962751678057	10.169806451943138	14	-0.10063666177804402	0.11592728222749665	0.18131614695056664
H	10.412173895030694	1.2840661404773346	6.235098107075196	1	0.027140844870015137	0.1676193546890738	0.04719469503557411
H	0.4008257865242918	5.6902597621220785	8.662788894012182	1	-0.18039620546701765	0.2361015162228139	0.2847920803336502
H	9.832607166959436	7.058418357635646	6.885966069247909	1	-0.2306574578179324	-0.015510192843793288	-0.08705068415584956
H	0.7749930096908286	0.8942460426822495	4.841542607879693	1	0.6397521959594615	-0.09056512801795996	-0.32309177940364
H	9.724132811267662	5.437414868439483	7.286139197912219	1	-0.12007601777208761	-0.2565855123084337	-0.06511735600126234
H	6.859586904572689	10.000246376480074	2.1698145341665653	1	-0.24418609979148753	0.06656385985437765	0.03960556346209303
H	3.019775885667112	6.672084194965619	0.4702050632822186	1	-0.3716329622953757	-0.05320465372142024	0.062342104918694505
H	3.0498549000837065	6.96239688853652	2.2828400324605593	1	0.05074796258801875	-0.09366819502884668	0.24781187251396036
