72
config_type=liquid dft_energy=-6960.425252510429 dft_virial="7.256091375598323 -13.203961637912261 -0.298408100657934 -13.203961637912261 -2.7190946131950944 -11.137783948956727 -0.298408100657934 -11.137783948956727 1.9993342744081575" pbc="T T T" Lattice="10.914011036500002 0.0 0.0 0.0 10.914011036500002 0.0 0.0 0.0 10.914011036500002" Properties=species:S:1:pos:R:3:Z:I:1:dft_force:R:3
Si	8.870635320191289	6.021707363289548	1.255482345572741	14	0.20980605078206346	0.22020231514408223	0.11150626662950205
Si	6.041265271066956	2.1173617971251466	9.808563600646027	14	0.3656592561945436	0.45449634432683206	0.3532040506921503
Si	7.4842830682798756	7.603289444621872	6.451828538238012	14	0.4437100432877469	-0.0431871131730593	0.11476514262278974
Si	2.135020666982203	7.5041465683663064	7.158641720983825	14	0.3547811666955291	0.35657091310888417	0.038501016616557415
Si	7.94262787576873	9.873731160544969	1.123073563677923	14	-0.01352272843131882	0.042779335869283806	-0.12691567214474553
Si	1.6405613969735708	9.678032028649486	8.009421623312111	14	0.03634231658976109	0.06850041638151318	0.20528321941339098
Si	10.86649143244708	3.2563043328501404	7.667289205339908	14	-0.0573780718770846	0.03512695510492708	-0.05291386170971149
Si	5.577234263828085	5.300727794218357	3.53922824094933	14	-0.12276307994217435	0.0868604223621586	-0.3949721708390198
Si	0.46454723996089703	6.52907790835436	2.370315830918107	14	-0.32165710263499736	0.1931038935118495	0.008860800264826326
Si	3.4804017214625946	9.79130854919732	4.99937012147852	14	-0.023790437527330177	-0.097563162478339	0.21619781860795156
Si	0.14834651221141898	3.1131452500843704	5.316902358574451	14	-0.026294694109154405	0.2764439584696614	-0.17997094464706517
Si	1.1617528187912791	9.684591349282423	4.561238062429263	14	-0.18069933878426309	0.0016329089888260449	-0.11476051463321346
Si	5.176308068402258	4.282363252424616	7.024617665455605	14	-0.03319579789896387	-0.06413133711098555	0.2273764703188914
Si	0.14406058007738543	5.165699649674779	8.99629924326555	14	-0.2534238240962476	-0.02151269532421099	-0.2589853820142599
Si	3.9646673051631365	0.7081741599220647	6.470207732823479	14	-0.025268051754819276	0.16236658652001126	0.14839905686830682
Si	2.3837728065261112	6.111049457634336	9.10176133191125	14	-0.0911683093260667	0.1164803269818605	0.16011609803328566
Si	5.780464063338751	8.032974059128877	9.205793685111168	14	0.0034537657765549147	0.07948135009333361	0.07412393793774107
Si	8.929450925666988	3.9881542569136847	4.600888664524867	14	0.07032127316924204	0.048967729264348225	-0.3426488920213464
Si	5.648928402326853	3.2387546031034486	2.2489847702253365	14	0.09398135565684071	0.11945895249525205	0.0406260351636598
Si	4.767425558930821	10.203694456211473	3.0963376730881595	14	0.0784793903500719	-0.08249931351812342	-0.03220103725059857
Si	10.716489264761424	4.320223956710234	1.8722331092453564	14	-0.0919738366228691	-0.3946119589836671	0.4324804836914681
Si	0.2600852486042097	8.024002742056874	0.531762268330286	14	0.015358754740436565	-0.026886048332788466	0.19340676971856297
Si	7.76600643516505	2.525251131592261	3.046744406938304	14	0.026489326781889613	-0.031828226979177095	-0.29438821672003884
Si	9.532832025819891	4.240824526419696	10.685580785506057	14	-0.24549530662050692	-0.0442618351968812	-0.2318293676228559
Si	0.4842000996343226	0.2777823174998944	2.8988813854158018	14	-0.20745683185104416	0.11733007729016946	-0.04151126672538678
Si	9.169875674790045	6.27415935257483	7.674852614988203	14	-0.027738369746417548	0.09524196859530931	-0.12554990099868285
Si	2.0140715966757106	8.307352296586487	9.912803320055637	14	-0.2901610624631834	0.16740852405282167	-0.0003771811504657232
Si	7.4878628638998475	5.364170940373532	10.12062791821267	14	0.08155880319201327	-0.058977556496748726	-0.17642667596324102
Si	5.468694424070093	4.201435860588968	10.88133448745672	14	-0.004211984735466583	-0.12570622420214786	0.10684613823673365
Si	3.719331251073653	7.430924468322428	5.4664897938407195	14	-0.1378698663612364	-0.1728212149727974	0.10203894261965277
Si	7.479382677324488	7.744353037268634	0.037377213596701556	14	-0.06568762716127119	0.17515089350338356	-0.4688253713865493
Si	0.9048882948439407	1.9157581852589183	9.368292395433617	14	-0.13461998923656923	0.021120601762888408	-0.1983245228644102
Si	7.159143765491504	9.76046555400817	3.320576943844089	14	0.022985167341059796	-0.270429886015303	-0.06735344629819513
Si	4.3662155992180445	0.603336352707653	10.407382644185672	14	0.040775159272228384	0.014171675414124197	0.10730070965733583
Si	8.661511954720913	3.9174314653971645	7.06535966865486	14	-0.101782346308702	-0.1318311112958046	0.09130406368697051
Si	3.8560619813389247	2.8950287395199172	5.637195840462616	14	-0.11374801335813915	-0.35368844693446616	-0.579682433922714
Si	1.4297572738035733	3.253652228168271	0.4297195393423218	14	-0.0723727581041882	-0.11379223636964568	0.05972266281852764
Si	9.967995473867218	0.6369569637055912	10.16687058297432	14	0.12260547118604928	-0.1471530992301631	0.11834206434417974
Si	4.792364074149224	5.74978477831515	8.853620376985386	14	0.18131331873471448	0.134563167808994	0.1374664599365052
Si	7.977258032787544	5.87354966346906	3.4568165436127187	14	0.20599027337643172	-0.18301436201452445	0.14026305119323026
Si	2.1576017558167218	3.5099786913715105	4.1334306578205355	14	-0.24339857023192618	0.010626635398704025	0.2368018853120223
Si	9.100146058277847	8.131822257086458	9.171480034412411	14	0.06666876095143968	0.22122510084043714	0.06131212012744318
Si	5.706412498456099	6.212244167964765	5.808054683239023	14	0.07796079840699804	-0.04753742337474985	-0.22681751202229122
Si	6.7674180813694464	2.630418541939975	7.659049127007351	14	0.06742338036290314	0.2865717994362567	0.024927380299899656
Si	6.906506238018602	9.548166211326173	7.663425645432987	14	-0.11383054583891591	-2.3911279477377132e-05	0.0357054538019604
Si	3.1662091717438328	5.665201192782274	3.910391928278622	14	0.20172943763988233	0.09706565359889036	-0.11716861187606417
Si	8.888796234556025	2.130382212291691	0.8259057797749975	14	0.552145895943928	0.14733179104991334	0.19550067789129158
Si	4.276295062288321	1.2540744381490325	1.8296466381809333	14	-0.124145563272818	0.12697146513019275	0.13882323221394732
Si	0.14920653628109518	6.711658398983968	6.277662750117545	14	-0.3219496944204302	-0.274769911795713	-0.11275248137817782
Si	10.199339765807908	0.9326349851020347	4.88380165861302	14	-0.04004008026119805	0.1244481823689994	0.04312386398218366
Si	3.9819005285897697	8.491242468540475	1.6812815721507521	14	0.16991020952932573	-0.1999669449429208	-0.04674706559933633
Si	10.279263068628198	10.099301940647349	1.081092820226026	14	-0.015656231625977696	0.011895218763665089	0.204676181447304
Si	10.766813769650726	7.798235509755836	4.237583065141855	14	0.17204422694504862	-0.0849158954085306	0.13805575727588312
Si	2.718647407159041	6.5179237890750565	1.8245825370599973	14	0.25777541985059815	0.11859069022863805	-0.010561329323572264
Si	6.348134519380226	0.6260909743176518	6.489940264777471	14	-0.05719809450467424	0.01035049868732012	-0.18476297074275713
Si	9.038165389601565	10.364108590425948	8.319892495267426	14	-0.030905714390307964	-0.3984562756583525	-0.2479669101647653
Si	5.820114665434356	7.03611011907704	1.8471745399055524	14	-0.4196972051502238	-0.18733793272088545	0.15207290926026643
Si	2.0765979659038187	1.9551577651006833	2.3055630034385524	14	0.22581143851051727	0.018343293796064454	0.09058363997626503
Si	2.83131274308883	0.7182783513396563	8.586663667032596	14	-0.02290726284985931	-0.09529699024916048	0.02783889996443534
Si	8.435199021868048	8.01422378816817	4.374401107495419	14	-0.23962315917982072	-0.007632069032327558	-0.3368443646505801
Si	7.825575107402268	0.7280223803930435	4.552168519257932	14	-0.31999308327179754	-0.18523502567953634	-0.10709245012640382
Si	4.136792173219778	9.19068869383665	10.400375849100238	14	0.09528182072777161	-0.29035800913070675	-0.050439172839068964
Si	3.0994045101894168	4.88015637892683	0.13280605189654662	14	0.07536346781258445	-0.002265915118646502	0.23235155911337793
Si	10.74307579564634	10.268458197702063	6.5973232193655935	14	-0.09738189955326856	-0.05899195468654156	0.27285752365858684
H	5.3813168517118735	5.840065477609078	0.8263336090076283	1	0.2539213329756962	0.29044619804318783	0.1674424626430476
H	0.5934209736809927	5.322926892666598	5.8220355313767795	1	0.09171801164351435	0.057508684027348135	0.03693469925552321
H	10.558301588798393	8.319990721366755	9.646774301040951	1	0.3495376545056191	0.20089100019498202	-0.5139878647770784
H	9.970331072229028	7.1597876921426575	10.889618221833425	1	0.09282590092596618	-0.5077891869607334	0.45652314665070476
H	10.267606904841216	2.141907407946235	1.6071863512239537	1	0.02480885234464083	-0.08801073488239283	-0.045669515359662266
H	7.369445844153824	1.9956269180240254	10.730491940921254	1	-0.6105290128906585	-0.13131431912645486	-0.25110777242385823
H	6.56924146896868	7.9685049959362715	2.8733644276124646	1	0.11129517888271787	0.08215041452617933	0.070007855430716
H	4.943719579203406	2.722914785474312	4.552506853600064	1	0.05970312241809451	0.13192315686626593	0.16588411570850584
