219
config_type=vacancy dft_energy=-23094.714611413656 dft_virial="152.27324877908163 -29.195477438417196 -48.60420472882054 -29.1954774384172 163.9644683176839 -7.09290310257386 -48.60420472882055 -7.09290310257386 71.93299678093814" pbc="T T T" Lattice="15.959025801400001 0.0 0.0 0.25984485809839486 15.861149096160014 0.0 0.47414265655959403 0.0644425461860532 16.487668531071378" Properties=species:S:1:pos:R:3:Z:I:1:dft_force:R:3
Si	12.615175810504903	14.58312796734778	15.072396588561942	14	0.0299235521580114	-0.015188290457710748	-0.032937658924821
Si	1.4597194252689134	1.2899185825471777	1.4114002828500147	14	0.2716429335053489	-0.007036601040181263	0.043846087466613254
Si	2.7187796355265044	2.657568792065234	0.02493438191210736	14	0.037827387022678606	-0.04052473361404596	0.10164016418449781
Si	4.104843369014216	3.9528448195739423	1.3824362469230538	14	0.0016452502943627558	0.037760538284354765	-0.041893075865428765
Si	2.797977896968532	0.013072038033926741	2.8088380140263847	14	0.012745740403570073	0.13602612673615821	-0.01138356880495562
Si	4.163231060811218	1.3330318907496599	4.148362036472054	14	0.003537069588927712	-0.05977999846716693	0.014528544832560749
Si	0.12920108108297412	2.636941751216925	2.73423276021	14	-0.0059125137942125225	-0.008681594224012002	0.04281173179631768
Si	1.5191971185281512	3.9416463711691	4.101554213796548	14	0.0025960450417535155	0.007928774586272646	-0.014791826017343914
Si	0.17388316152173386	0.025271117356516902	5.5170703294007435	14	0.007709716412996029	-0.010282364396336199	0.0021666704532887866
Si	1.5584291916557327	1.3281675796853931	6.872850215527719	14	-0.0014717006852527604	0.017617213653654637	-0.013754385020664164
Si	2.8702355780895306	2.6763334146025204	5.516211733812629	14	0.012546222630726581	-0.017288369283207698	-0.011300779213646852
Si	4.258083530661839	3.9753502377590766	6.873147053407625	14	-0.0017635211390895674	0.025247997133322122	-0.005390836524754477
Si	2.9069285702121093	0.034208171805300905	8.258538911909097	14	-0.0003082755278857547	-0.02532127363494634	0.00396155907728416
Si	4.295989408745324	1.3349980427283925	9.612210610727708	14	0.005216258473516423	0.025176777515954023	0.018836431796468857
Si	0.28927649348133666	2.6820595130600626	8.25572054795257	14	-0.002403726363806439	-0.01564569009416509	0.0016416507469145481
Si	1.6776399225870304	3.981283803552037	9.61293515049909	14	0.014143907476666598	0.002713030333820253	0.010604523892950753
Si	0.3185102369443412	0.043836252071285525	10.99255782117336	14	-0.012482716329318924	-0.010756476217371502	0.008109523290279056
Si	1.6958603423444887	1.3550537504530118	12.349673477759913	14	0.07534804118066356	0.0712494421898155	-0.006040297728623882
Si	3.0276873266461433	2.6887208104295675	10.999300509574452	14	-0.02367088112994329	-0.018769840168677023	-0.00040263509313518916
Si	4.412008334516342	3.9855640142719726	12.36413395103856	14	0.012838300195095402	0.021205705348985308	-0.007109363320741454
Si	3.0638887807740387	0.11875909050111812	13.752822944270601	14	0.008301584857694118	0.08208485134051555	-0.023886082645239684
Si	4.459698691318666	1.3760510406999136	15.127349898006482	14	-0.01864077068160559	0.05844790880079822	-0.05362837187818065
Si	0.4515670186609336	2.67108289511386	13.783210525299049	14	0.0285240995322548	-0.012912605138847684	-0.053745871391311414
Si	1.8304523823431758	3.992790261154847	15.12619606044104	14	0.02835414947059301	0.04125415619337197	-0.03290500588725512
Si	0.09603982137024505	5.29736720890061	0.01199799559749252	14	-0.00538672275624224	-0.027168098586408704	0.0022625726817303094
Si	1.4830339660621787	6.594127425808848	1.3720134071721595	14	0.008580549784930185	0.007698660660119392	0.0012508427382520403
Si	2.7994557027577414	7.933646660546777	0.011586252731816401	14	0.0014411045319429982	-0.014249065684260655	0.00245617691233746
Si	4.192804731523792	9.221340554897239	1.3770612470331423	14	0.009269348900197856	0.0344222151366745	-0.002420952769451431
Si	2.8335377982592114	5.30591486311984	2.763152110864717	14	0.02477259975962674	-0.011461473296156108	0.012888693859370307
Si	4.225108991550987	6.599255060798837	4.12460383476151	14	0.000722737705493625	0.018511701194534155	-0.0010595525024330234
Si	0.21473667167073773	7.9435332770307445	2.7606784618655	14	0.002741312492341882	-0.012245917529333284	0.011232644922662927
Si	1.606719607828189	9.22968552948879	4.129418672845793	14	0.010261795553775013	0.03701054686246756	-0.011896247205793147
Si	0.25497895113154795	5.295972390045567	5.495404355972763	14	-0.00011904217632285606	-0.013159688360113912	-0.004014009625815181
Si	1.6387382012935379	6.597603301628394	6.859230782908804	14	0.011044954234292118	0.01342271243436506	-0.00914182207631851
Si	2.961433431031631	7.948437485659515	5.516987342466575	14	-0.007139188142455171	-0.018049416457971527	-0.0023497331520833296
Si	4.3458996660366225	9.254797056587295	6.873691256187453	14	0.0017460376229125605	0.02063286308365632	-0.000582098244481525
Si	2.993383400686034	5.328559124829447	8.26096308792833	14	-0.007851898537200218	-0.018630486260324992	0.004040492010612707
Si	4.379206152884144	6.627657339017589	9.622349379819338	14	-6.50489645997464e-05	0.021330146846480477	-0.0023692735525164548
Si	0.37506583257934256	7.942487960840753	8.256231236778214	14	0.0001041297654659972	-0.03361411673455195	0.0033565779954533173
Si	1.764895896156185	9.245488156837338	9.605664218343973	14	-0.011596456325463881	0.01576550360208399	-0.0013377460980730455
Si	0.4084840326074741	5.313701271808343	11.017717225349266	14	0.0007178526053853437	-0.013818405543135851	0.010227342742485027
Si	1.7966687206241923	6.6233436143434705	12.366061801355368	14	0.010173092420229903	0.01430974376981615	0.009982059294942901
Si	3.111539240011859	7.975824769837297	11.015277090304233	14	-0.008662825155174922	-0.019242923547584268	-0.0035758932792619483
Si	4.4841495147489905	9.289527088536301	12.379499301080148	14	0.007098307567864817	0.036094204926366794	-0.0018198283456008102
Si	3.1446175127904206	5.331513140505286	13.757390417454964	14	-0.013157117254793764	-0.010542817365267198	0.0031133514321673088
Si	4.533347999489546	6.6370588011171945	15.112445763810555	14	-0.003825033384784297	0.01063923381477275	-0.001299693739334854
Si	0.5345778913669157	7.98508260070469	13.749294403665912	14	-0.008743043641163543	-0.008287186667901288	-0.005300333617485265
Si	1.9234296666621324	9.28630655712958	15.106609548074982	14	0.005596524950366323	0.015174406488981945	0.009774056874542922
Si	0.179618835394757	10.565754422848459	0.01138038129897834	14	-6.967695417601293e-05	0.024642758940959263	0.0026492669218805805
Si	1.574539828202246	11.849654856765929	1.384161417612185	14	0.03902063700175934	0.03569362671748773	0.06707088182351086
Si	2.8944693587689563	13.22626446336889	0.08305077027048562	14	-0.06108817685405828	0.0016406223047864892	0.1037512987628714
Si	4.300915960010217	14.529848759709806	1.403061691868783	14	-0.03906151757634969	-0.01786378265385684	0.043235192842546066
Si	2.9280184228086594	10.570041017178713	2.7722024743966904	14	-0.012594302300213349	-0.028401714919015754	-0.007811532183673894
Si	4.313311335350164	11.880398324069745	4.1248176857072485	14	0.0003327010284271614	0.019382277455936292	-0.0028886368271863667
Si	0.37441630022922556	13.21554638164067	2.8032986361707186	14	0.10856697902750875	-0.00022342905232086807	-0.09067619976779036
Si	1.730129158447835	14.54173982983443	4.153390725502075	14	0.026750808192948672	-0.046978979299213686	-0.026973465913673497
Si	0.35013783427755574	10.574535078844388	5.5334586529962015	14	-0.04784981267114784	0.009473237552085597	-0.00447552303078176
Si	1.7334470399119462	11.887915025222204	6.880417985562743	14	0.008930477219002338	0.012792020299332739	-0.013984756057349432
Si	3.0602517187939	13.2288833395029	5.5299955443972975	14	-0.01791957563930405	-0.013473877430236007	0.0028873512745262926
Si	4.441064932792951	14.539724204875712	6.880269566622789	14	-0.00513218332954758	0.012308395388612885	-0.010674200847126765
Si	3.0848270226254755	10.606039791678933	8.269981533408702	14	-0.007239718360472961	-0.012129703568862591	0.0051846338780786
Si	4.459571019112254	11.917102487510386	9.632753068739271	14	-0.00020106043603557977	0.01650983859226686	0.008548153857896318
Si	0.4624526701600685	13.248685298717279	8.254895466318638	14	-0.0032452491350909054	-0.011358629083350183	0.0026616082274172914
Si	1.8485052323297197	14.549594862333878	9.613216029353197	14	0.01449589179499487	0.01747605997157851	-0.007503770876852169
Si	16.446160700864517	10.596307977745239	10.978839442594476	14	0.03617030964384318	0.007811017962609864	0.011026442275987052
Si	1.8526545790380837	11.909536313377941	12.343787789044354	14	-0.01312574976988796	0.010280307512080079	-0.002916918985707996
Si	3.192759510022924	13.277634971521017	11.023454495124868	14	-0.007781193140896147	-0.015765246491551976	0.019267606158657687
Si	4.584870118386786	14.59987058131603	12.371618734139417	14	0.0023062814721728267	0.02799856560481654	0.011654306195167214
Si	3.2238508840892113	10.661222911095013	13.765535904223999	14	-0.015603266856382648	-0.012644695964488254	0.0007782735804088234
Si	4.6225685291348535	11.940586193977145	15.150401114874025	14	-0.016950783154672255	0.037987052663059816	0.02780290448995327
Si	16.50790138398239	13.257652675315084	13.70675721629486	14	-0.1151274113623986	0.0233515498491809	0.08809481002636169
Si	2.10214522119653	14.44690810671735	14.985903456426094	14	0.12137725417461455	-0.21409465445607045	-0.2667632327182398
Si	5.3303305766934015	0.004283402525095761	0.01592072413947664	14	0.03195241136614025	-0.012459319270905577	0.005896058720163575
Si	6.71977283594327	1.3042465959116747	1.3722559843643407	14	-0.01663505142135807	0.023513015263286197	0.0019357851955394887
Si	8.032788916532814	2.6477779297360757	0.011804891385295582	14	-0.0070697682988111726	-0.013422455323833047	0.00038592290855422667
Si	9.41777062807119	3.9452946044673	1.374265225712737	14	0.016504182160562535	0.011026185165455036	0.005951851705610788
Si	8.07127251135031	0.01312310691649122	2.7588144476518965	14	-0.006126172646316828	-0.025599467230586363	0.0039844419146334775
Si	9.452690572427235	1.312870853454751	4.122048794730706	14	0.02398738419485352	0.025296333913340904	-0.007156671658632178
Si	5.46139886379514	2.6620069971406037	2.7637777046761314	14	0.014656328766972109	0.0026526093587967733	0.010842865356128478
Si	6.845826797138208	3.964624176517956	4.120695469342747	14	0.0011505696307662653	0.01654017763504461	-0.005992732280201142
Si	5.760726351726198	15.87865614746415	5.5204488551629	14	-0.001203277289829301	0.028122492881247674	4.4223011506546956e-05
Si	6.879147647108951	1.328509102837543	6.869931309708643	14	0.003755099320076269	-0.006222846206354396	0.0009212270362090567
Si	8.192230755606861	2.671400479727308	5.5083152078460955	14	-0.004910811161482831	-0.022120247511361987	0.003247306019347024
Si	9.579638239067052	3.9701858970097432	6.866701202886439	14	0.00366742462865922	0.01987310146155256	-0.0040122098520910775
Si	8.225551605577603	0.03600994581827896	8.253840574713164	14	-0.0038468877800055556	-0.02480782390251277	0.0030997245739705238
Si	9.606549944275951	1.339200054221901	9.608830489062973	14	-0.0004193472777161517	-0.00638456873099171	-0.006109460461735865
Si	5.6089097351800605	2.6803439177864123	8.255176345172742	14	-0.006290723386806305	-0.020219943569240537	0.00017663493549417304
Si	6.993460553021799	3.9809598353282687	9.615293894512538	14	0.002311937903877153	0.020874804094282252	-0.0005299048064825191
Si	5.65462596049075	0.048335101444700185	10.993612712778832	14	-0.016684930864568945	-0.052118875944721706	0.013311126463470636
Si	7.034946040592539	1.3467773996724057	12.359368585934263	14	-0.012492229419003471	0.025950423106786576	-0.003870799059482933
Si	8.346939147628213	2.6929994252469225	11.002334320379298	14	-0.0006024099765106949	-0.02134943013638159	0.004696123867250466
Si	9.728660430195363	3.996211876286666	12.361347505133637	14	0.004135365796926171	0.017273199761818823	-0.0004687124998629948
Si	8.381302121983788	0.0576998577849617	13.751817525645116	14	-0.002311937903877153	-0.027064997263070767	0.0014876415382376784
Si	9.769062299914188	1.3578098742089135	15.10952685799148	14	0.01858986279626666	0.025246454470130034	-0.005295705627908999
Si	5.7707901133965605	2.700801792961227	13.749525809540033	14	0.012858354816592558	-0.02588974502123108	0.011195106784988767
Si	7.157398049664101	4.001223010388307	15.108554953320173	14	-0.009685867962061844	0.012051284856598076	-0.010063820444123612
Si	5.416440692210015	5.286657106685291	0.01091118594041718	14	-0.003101267237162613	-0.00819848353435618	0.038155974282593534
Si	6.803642304237368	6.5856978683805485	1.369806273903826	14	0.00013369747664770013	0.016913245016998094	-0.01836334841756161
Si	8.116450917491495	7.928485511602604	0.01032389379092566	14	-0.0031431762538810266	-0.026786289446366716	0.006409251342065131
Si	9.503440274475686	9.22307849280701	1.3715362323006977	14	0.0024978288185238586	0.01748197351381485	-0.020578098540337163
Si	8.160719659161998	5.306618656157681	2.760876353785437	14	-0.004757573284402006	-0.018033732715518627	0.0015156665862272926
Si	9.549587393483014	6.6058142204032135	4.11879953707754	14	0.006443704153355116	0.019175817698728403	-0.0055816125395094646
Si	5.5451135295389635	7.937379476681724	2.7649490971699544	14	-0.007479345376310762	-0.019832220886962206	0.0013724560198950446
Si	6.932503458070772	9.244109297008096	4.118750064097556	14	0.005048365296110753	0.020017597580544885	-0.005761847022451846
Si	5.576958169623078	5.311945778970189	5.511711288536634	14	-0.0037353018091111287	-0.01537983780406178	0.0029446869231655954
Si	6.962768154600547	6.614484759121114	6.869024837043123	14	0.0018154574665565587	0.020164664804857353	-0.006460673448468093
Si	8.280974110380706	7.955081228100637	5.508693436757589	14	-0.005178720335842261	-0.020997188707521302	0.005643061956661004
Si	9.666538326360834	9.260004486706292	6.862776878441875	14	0.005355612381868448	0.022862525617288732	-0.005315760249406154
Si	8.311719173587102	5.321701531442584	8.255637561018403	14	-0.002909719890811581	-0.01971369293170338	0.0027446549292580746
Si	9.696129552001791	6.6247176864649715	9.612820245513321	14	0.0033941161331274795	0.021203134243665166	0.001647821399682904
Si	5.697112078979238	7.965789734413376	8.26073327795679	14	-0.001183222668332146	-0.021588028710091328	0.0020609980246307003
Si	7.078100842262105	9.27137848439495	9.619036286062968	14	-0.0010009313011336471	0.02507984684538444	0.0022422609497011396
Si	5.727182075394236	5.3315642093878495	11.006324076829646	14	-0.0035519819997845707	-0.026144798668989774	0.003996268999106159
Si	7.109489054208297	6.637907821289828	12.362830098630585	14	-0.00047796847901552793	0.020290648965544607	0.0016401080837224597
Si	8.428486577668206	7.976488665310635	11.002334320379298	14	0.000583640907673614	-0.022722400377340662	-0.0015292934444240773
Si	9.812877805251933	9.27526610308017	12.362929044590555	14	-7.327650162422025e-05	0.020155665936236834	0.0014974117384542413
Si	8.464478968558103	5.350009651409108	13.749658269454185	14	-0.001952754490652466	-0.019290488996007004	0.004160048407999592
Si	9.856031011018917	6.638247748539398	15.112247871890617	14	0.004105283864680438	0.016664619132539776	0.011045468455356148
Si	5.8408550243724475	7.987905752368956	13.753285756018844	14	0.0035704939580896372	-0.019898041183158	0.004589680106996335
Si	7.2374469271813435	9.279275010361483	15.109494939939877	14	0.0024160676693431495	0.01677723354556226	0.010323759191990581
Si	5.512111860084249	10.565358639008583	0.02364010491961382	14	-0.009415901903446294	0.003935590913550665	-0.02679708808871134
Si	6.900684352427941	11.870537242027059	1.374539720956521	14	-0.0020604838035666708	0.0012662693701729288	0.003084812163113665
Si	8.20522299851178	13.22124534975435	0.012095345654881061	14	-0.003199740570924284	-0.008965958472420382	0.0007065397419766922
Si	9.595120089996989	14.521558045805978	1.367926300664421	14	-0.0005533018648958667	0.011296151224070586	0.0054024064986951436
Si	8.254269872507225	10.587468273353844	2.763003691924764	14	-0.0007805875751969568	-0.013735358841295066	-0.0023296785305861743
Si	9.647636456201656	11.896607906576227	4.108478835091775	14	0.005964707232211529	0.010049936475394811	-0.0065858862775593045
Si	5.642177920365659	13.218634453133241	2.7735877178362522	14	-0.00851884325724663	-0.012818245573598246	-0.023669852687815227
Si	7.023474692846492	14.5293189200532	4.124702780721479	14	-0.009220240788583026	0.01624398630216355	-0.009494320615710811
Si	5.664392884281208	10.59097447132241	5.510854288851098	14	-0.004774028358450953	-0.01651729479769529	0.0014871273171736489
Si	7.048782515962353	11.896312664598902	6.866008581166659	14	0.001704899937790191	0.013987070052137566	-0.002303453256320664
Si	8.371776179482932	13.234866378275845	5.50632032962092	14	0.0005802984707574214	-0.008065557389304524	0.003017963424789815
Si	9.746370161127178	14.538045315361405	6.8689099320573535	14	0.0018257418878371509	0.03193441362889922	-0.005025996679825465
Si	8.39798409165399	10.607681975433895	8.255671074972586	14	-0.002840557157699598	-0.025519248744597746	0.0018527384936987057
Si	9.783034427003313	11.90691424543877	9.615046529612618	14	0.0031819999442152624	0.014254979226496994	-0.001302521955187017
Si	5.784842035614694	13.244452965074744	8.263733574807453	14	0.0008649198296978138	-0.004995914747579732	0.0057150529056251495
Si	7.1731049228578385	14.549930001875708	9.609703447774308	14	0.004086771906375371	0.029855932088091505	-1.1055752876636739e-05
Si	5.807730470419061	10.619092678881897	11.01310027918492	14	0.006772548523802055	-0.015400920867686995	-0.007940601670745328
Si	7.183465522408108	11.929312738151035	12.371436801245281	14	0.0009505376368587449	0.008201825971272373	0.0047922832062240045
Si	8.509976555215315	13.256872278953395	11.003224834019013	14	-0.004729291125880377	-0.008436567887001891	0.00101712926465058
Si	9.893868265291458	14.561514658704944	12.354718125815733	14	0.011454788422323722	0.015068219839259833	0.0008839460090669096
Si	8.54045510269083	10.629791609779156	13.746705849680925	14	-0.0017799762131385153	-0.01495046321559705	0.005409091372527529
Si	9.929041958157743	11.922617926827348	15.10621376423511	14	0.011720640712427033	0.0025667344411038273	-0.0051332117716756396
Si	5.919606433092036	13.288242935971207	13.766376944883731	14	-0.01799182369880021	-0.004726977131092243	0.0052669092483233395
Si	7.326961102901396	14.576690096339497	15.113352236476073	14	0.00609583360353908	0.005328872886538908	-0.00960976324458546
Si	10.648795617703462	0.0033434159053933	0.00725816493447672	14	-0.027879009207429646	-0.013989384046925698	-0.001421307020977858
Si	12.034219394256539	1.3186320617690566	1.353266339563255	14	0.003953074429727671	0.058486218270068425	0.049380905889296015
Si	13.826749939490428	2.7191435013147762	16.486709393620714	14	-0.043072441875780694	-0.05327741600198044	-0.10796919704057432
Si	14.744066763042	3.9416782892207025	1.3580891571604379	14	-0.024846390482314993	0.03864628406714578	0.02587251861558609
Si	13.395634412393989	0.06867328392600434	2.7537857586218752	14	-0.03386788482965057	0.06976540019902604	0.03195343980826831
Si	14.791576782852767	1.3233623170165916	4.128906388117567	14	-0.06863925606880117	0.06460647737414892	-0.013841031269953152
Si	10.770200714682453	2.653081114009881	2.760530042925547	14	-0.01610720349913167	-0.022204836876394855	-0.009984116179199021
Si	12.159799372385175	3.95270118834173	4.117514835500527	14	-0.0035308989361593564	0.016910931022209964	-0.002016775013124153
Si	10.798649274076029	0.025326973946821804	5.516526126620915	14	0.008214681497873112	-0.05047491120301902	1.2598416068725587e-05
Si	12.190943411236606	1.3244666816020485	6.868134323403405	14	0.0006869993415435667	0.023095724869826164	-0.02320088307742022
Si	13.510090949539048	2.6668393901532674	5.510128153177134	14	0.013385688517754929	-0.01796816952985485	0.008117236606239501
Si	14.89546684901472	3.9696512696453965	6.86773853956353	14	-0.0076783489280902225	0.0021515009318999125	-0.017892579033442498
Si	13.544024626100565	0.03445872851038288	8.25194464244796	14	-0.003884940138743747	-0.026535349567120264	0.0002967055539450883
Si	14.928634492337771	1.337856304249423	9.608615042214653	14	0.006973608959837635	0.02045057171645782	0.007418410180223252
Si	10.92953243647847	2.6803295546631913	8.255588088038419	14	0.0007952428755218008	-0.020446972169009613	0.005150695287852647
Si	12.316038234980882	3.985136312380495	9.608599083188851	14	0.006855595225642838	0.02693849888131948	0.0011012044086194223
Si	11.208066909692883	15.898976775017074	10.98779245606906	14	-0.0010796071239301784	0.03100341639247359	0.006814971761584498
Si	12.320256205500192	1.365840455992178	12.32901451886	14	-0.0011068608403237482	-0.06264883778338817	-0.024468695110785237
Si	13.66844597895602	2.696318902613614	10.995475131089854	14	-0.022355246537623517	-0.016687501969889093	0.013612202896459974
Si	15.056041778920667	3.9676117061479776	12.385040274838394	14	-0.0008101552863786597	0.006235444622423121	0.016712955912558558
Si	13.649714870372918	0.05632418976088102	13.696551419294865	14	-0.00889216774973213	0.12401546534361849	0.018967815278328422
Si	15.028956120330532	1.3311471298025146	15.070484697270935	14	-0.2687872068262604	-0.030268337381443255	0.007001634007827249
Si	11.078691875228676	2.70471335018515	13.748174080054655	14	-0.020873775652154196	0.004181131471624806	-0.006768948976353848
Si	12.472345721387532	4.004079676006756	15.100888237325181	14	0.006475071638260922	0.036550576120693075	0.03879309418092623
Si	10.734080651586144	5.283744584476535	0.012497513105076342	14	-0.005726108658501787	-0.0046485584188277265	-0.03957985240889154
Si	12.124019236538436	6.581872489895953	1.3693610170839667	14	0.011292037455558348	0.015424060815568325	0.003277645062124771
Si	13.434817012541584	7.931426760057803	0.0121208800961633	14	-0.007278027829743168	-0.008697535076996922	-0.0036265440540688655
Si	14.818648078319683	9.233019369978704	1.3744359872888119	14	0.011785432566494764	0.012578361447228431	-0.00966864155641685
Si	13.477809032147977	5.289180228664492	2.75487416418153	14	0.004552141969322174	-0.009353681154698711	-0.004224840262067323
Si	14.861177286177833	6.593430016381327	4.115650821286924	14	-0.0022597444658781466	0.00659848469362803	-0.015157694304400985
Si	10.86785239765864	7.944913732762565	2.75691851538669	14	-0.008034189904398718	-0.01781518876330604	-0.004545714206021804
Si	12.259951834704442	9.257016957076269	4.10158772775073	14	-0.0019496691642682882	0.03439341875708884	0.0033408942530004137
Si	10.896044016736813	5.309824824441183	5.50483614022139	14	-0.0024903726130954293	-0.023951388720371444	0.0016496211734070075
Si	12.27977294474978	6.615874790268415	6.859363242822956	14	0.004722606252047992	0.020580926756189326	-0.0028570122317485456
Si	13.596619191531659	7.9548753566678	5.496459247578236	14	0.0023265932042019965	-0.01697340888148956	0.005268194800983414
Si	14.97994595209443	9.234645594707867	6.875884026332566	14	0.018161773760462	0.013559238126864924	-0.001535206986660418
Si	13.63059276565768	5.3272616560317925	8.249735913277046	14	0.00018203425666648402	-0.01840705720800413	-2.1083063625214246e-05
Si	15.02097022381951	6.605467909543322	9.622695690679228	14	-0.008311097947378665	0.01263004066416341	0.005089245870701108
Si	11.01239967795224	7.9650348724929705	8.25026256112849	14	-0.003119779195467679	-0.020678885868886967	0.003863342854054503
Si	12.398956545337214	9.264782619031232	9.607379813617625	14	0.003136234269516627	0.01998340187978691	-0.003704962766333382
Si	11.047219080445734	5.33247068205337	10.999136131608696	14	6.607740672780563e-05	-0.015022197054029181	0.0035476111207403196
Si	12.434998409207097	6.629554867185376	12.356433721089385	14	0.004907468724566638	0.019088657228375383	-0.0037234747246384483
Si	13.748142162003052	7.9682825342435555	10.992623253179145	14	-0.0011719098049234945	-0.01646561558076031	0.00928297575839464
Si	15.137319501424617	9.260038000660474	12.350481004465463	14	-0.0022404611759770363	0.0356517177007693	0.003286643930745289
Si	13.791407080950648	5.347146602180336	13.747811810168963	14	-0.03537840920523757	-0.00924029541008018	-0.00726954318218668
Si	15.176376025268382	6.646565592787088	15.109841250799766	14	-0.0008896024407712353	0.00894076164028293	-0.004465238609501169
Si	11.164869018653656	7.978169150727523	13.74561904002385	14	0.004878929455512995	-0.01763855382781187	0.002371073326240558
Si	12.55085136110978	9.272674357290022	15.104581155895625	14	-9.15313493972716e-05	0.035211801580491975	-0.002740798271277852
Si	11.280370871988707	10.626165719117077	16.487665339266215	14	0.006795431361151372	0.005083589438996782	0.03524214062326972
Si	12.204503795460058	11.88023554200657	1.3316227087713963	14	0.00844993763466666	0.021610911547440652	-0.029937436126740203
Si	13.977010551020928	13.278886159143847	16.420659773536457	14	0.060962706914435054	0.014298688016939511	-0.048533469575775215
Si	14.817103244622107	14.388557120679693	1.480003347062493	14	-0.20652943416206676	-0.23878600728758054	0.224590677704511
Si	13.572897695580458	10.619209179770248	2.7474883270406427	14	0.0032835586043611117	-0.012035344003613157	-0.011179423042535863
Si	14.981634417024221	11.878770503438002	4.138585537266116	14	0.03008913134062894	0.009560398022438618	0.009816480112325367
Si	10.96691645441825	13.24438114945864	2.745905191681144	14	0.006632423283853985	-0.01139950965794054	-0.007135074373942935
Si	12.33938628972833	14.566977433236763	4.109583199677233	14	0.018452822882702766	0.03601835731942242	-0.01871764673067802
Si	10.986517329907528	10.596869735453447	5.497367316146335	14	-0.005596524950366323	-0.010538189375690931	0.009319742564472757
Si	12.371593199698134	11.904678385923996	6.847261513557754	14	0.005854663924509191	0.016245528965355638	-0.005425032225512447
Si	13.69226482496461	13.255992936631738	5.489979883102867	14	0.0029385162703972397	-0.013111865801159158	-0.02723340466154047
Si	15.072867379823082	14.541273826281028	6.866948567786361	14	-0.010746448906622925	0.012599444510853645	0.010757247548967548
Si	13.710865069536142	10.605846687466734	8.240881845762429	14	0.0017822902079266483	-0.010473911742687228	-0.001362428709146467
Si	15.099466288126276	11.898017088554491	9.599052393954453	14	-0.0035054449934898914	0.015270822938487501	0.014565054528106853
Si	11.098367758139222	13.243655013784675	8.246387709663912	14	-0.004896670082222016	-0.0042184124987669535	-0.002366188226132277
Si	12.478430897925607	14.549906063337007	9.599267840802773	14	0.00809692487421033	0.01149155522840184	0.004620019149774084
Si	11.131426880086822	10.611808979506137	11.000224537168352	14	0.0012279599009027223	-0.01696620978659314	0.0027726799772476883
Si	12.518344421454907	11.912389787191232	12.355493734469682	14	0.0023307069727142335	0.01472266328423193	-0.005462570363186608
Si	13.823444825246957	13.249483250007348	10.979268740388534	14	0.011852538415350628	-0.010587297487305759	0.004107083638404542
Si	15.18945763871779	14.572237528140905	12.326410005849212	14	-0.025212515879904078	-0.042286969200475456	0.0030372467146909258
Si	13.865294178605968	10.609499708472674	13.737111283369124	14	0.00797016938192703	-0.029430157047074988	0.008580292674398169
Si	15.255596629346533	11.899454996779196	15.092940642476085	14	-0.035426488874724334	0.0277062309299157	-0.06505462103145074
Si	11.237334167110072	13.259842253655036	13.735445161075459	14	0.006502325354654492	-0.009835506291694463	0.025815440077478803
H	15.649133438388414	0.3634556413088241	16.03321612054555	1	0.20807698245426387	-0.13730062364335563	-0.15780133191355633
H	2.9486406759492283	13.503664249848825	14.085445747731121	1	0.04139788098076825	-0.039663156221264345	-0.04572273723978934
H	0.7760283763266168	0.3380616394536364	0.47352663816366	1	-0.12564194656914415	-0.0613247185435119	0.1640221212356546
H	13.9508967971021	13.442640126989431	2.3671512282390976	1	-0.03652049418844734	-0.01323322197227015	0.024339368513181792
