
     Program PWSCF v.6.2 (svn rev. 14038) starts on  7Nov2020 at 21:48:54 

     This program is part of the open-source Quantum ESPRESSO suite
     for quantum simulation of materials; please cite
         "P. Giannozzi et al., J. Phys.:Condens. Matter 21 395502 (2009);
         "P. Giannozzi et al., J. Phys.:Condens. Matter 29 465901 (2017);
          URL http://www.quantum-espresso.org", 
     in publications or presentations arising from this work. More details at
     http://www.quantum-espresso.org/quote

     Parallel version (MPI), running on     8 processors

     MPI processes distributed on     1 nodes
     R & G space division:  proc/nbgrp/npool/nimage =       8
     Waiting for input...
     Reading input from standard input
Warning: card &IONS ignored
Warning: card / ignored

     Current dimensions of program PWSCF are:
     Max number of different atomic species (ntypx) = 10
     Max number of k-points (npk) =  40000
     Max angular momentum in pseudopotentials (lmaxx) =  3

     Subspace diagonalization in iterative solution of the eigenvalue problem:
     a serial algorithm will be used


     Parallelization info
     --------------------
     sticks:   dense  smooth     PW     G-vecs:    dense   smooth      PW
     Min        1607    1607    423               135946   135946   18403
     Max        1608    1608    424               135950   135950   18405
     Sum       12863   12863   3389              1087587  1087587  147231



     bravais-lattice index     =            0
     lattice parameter (alat)  =      30.8753  a.u.
     unit-cell volume          =   29574.7082 (a.u.)^3
     number of atoms/cell      =          229
     number of atomic types    =            2
     number of electrons       =       877.00
     number of Kohn-Sham states=          527
     kinetic-energy cutoff     =      42.0000  Ry
     charge density cutoff     =     168.0000  Ry
     convergence threshold     =      1.0E-08
     mixing beta               =       0.3000
     number of iterations used =            8  plain     mixing
     Exchange-correlation      = SLA-PW-PBX-PBC ( 1  4  3  4 0 0)

     celldm(1)=  30.875274  celldm(2)=   0.000000  celldm(3)=   0.000000
     celldm(4)=   0.000000  celldm(5)=   0.000000  celldm(6)=   0.000000

     crystal axes: (cart. coord. in units of alat)
               a(1) = (   1.000000   0.000000   0.000000 )  
               a(2) = (  -0.001995   1.009137   0.000000 )  
               a(3) = (   0.000544   0.020303   0.995722 )  

     reciprocal axes: (cart. coord. in units 2 pi/alat)
               b(1) = (  1.000000  0.001977 -0.000586 )  
               b(2) = (  0.000000  0.990946 -0.020206 )  
               b(3) = (  0.000000 -0.000000  1.004296 )  


     PseudoPot. # 1 for Si read from file:
     ./Si.pbe-hgh.UPF
     MD5 check sum: 9a9f0f6e09139bfdb36b03ff6bc35900
     Pseudo is Norm-conserving, Zval =  4.0
     Generated in analytical, separable form
     Using radial grid of 1141 points,  3 beta functions with: 
                l(1) =   0
                l(2) =   0
                l(3) =   1

     PseudoPot. # 2 for H  read from file:
     ./H.pbe-hgh.UPF
     MD5 check sum: 5f350582108a937bec95f27f5610ab08
     Pseudo is Norm-conserving, Zval =  1.0
     Generated in analytical, separable form
     Using radial grid of  929 points,  0 beta functions with: 

     atomic species   valence    mass     pseudopotential
        Si             4.00    28.08000     Si( 1.00)
        H              1.00     1.00784     H ( 1.00)

     No symmetry found


                                    s                        frac. trans.

      isym =  1     identity                                     

 cryst.   s( 1) = (     1          0          0      )
                  (     0          1          0      )
                  (     0          0          1      )

 cart.    s( 1) = (  1.0000000  0.0000000  0.0000000 )
                  (  0.0000000  1.0000000  0.0000000 )
                  (  0.0000000  0.0000000  1.0000000 )


   Cartesian axes

     site n.     atom                  positions (alat units)
         1           Si  tau(   1) = (   0.0487828   1.0126275   0.5116975  )
         2           Si  tau(   2) = (   0.9577220   0.6783105   0.4455228  )
         3           Si  tau(   3) = (   0.2666428   0.9156876   0.2871493  )
         4           Si  tau(   4) = (   0.3066050   1.0018574   0.7470991  )
         5           Si  tau(   5) = (   0.6240943   0.5423211   0.1887082  )
         6           Si  tau(   6) = (   0.6358840   0.6162382   0.5279118  )
         7           Si  tau(   7) = (   0.9850446   0.7363537   0.8248043  )
         8           Si  tau(   8) = (   0.6707299   0.1314246   0.9003686  )
         9           Si  tau(   9) = (   0.4870531   0.7215961   0.3716193  )
        10           Si  tau(  10) = (   0.8833087   0.5305125   0.7602446  )
        11           Si  tau(  11) = (   0.5699817   0.0350896   0.0785970  )
        12           Si  tau(  12) = (   0.5786970   0.3169402   0.5196862  )
        13           Si  tau(  13) = (   0.1330449   0.9382357   0.2320629  )
        14           Si  tau(  14) = (   0.4222585   0.5763133   0.8546281  )
        15           Si  tau(  15) = (   0.4113725   0.1972227   0.7531521  )
        16           Si  tau(  16) = (   0.8866336   0.5896118   0.5313073  )
        17           Si  tau(  17) = (   0.6146415   0.4430750   0.8146907  )
        18           Si  tau(  18) = (   0.5152311   0.2705906   0.8104967  )
        19           Si  tau(  19) = (   0.8352182   0.8847693   0.7942605  )
        20           Si  tau(  20) = (   0.2550314   0.1627369   0.9197593  )
        21           Si  tau(  21) = (   0.3456053   0.3595711   0.8908614  )
        22           Si  tau(  22) = (   0.2032013   0.1674774   0.3931090  )
        23           Si  tau(  23) = (   0.0901036   0.8517650   0.4334507  )
        24           Si  tau(  24) = (   0.0768188   0.9998008   0.0135486  )
        25           Si  tau(  25) = (   0.4474127   0.6564693   0.6341126  )
        26           Si  tau(  26) = (   0.2674335   0.7753054   0.3146581  )
        27           Si  tau(  27) = (   0.1361629   0.7140908   0.2965758  )
        28           Si  tau(  28) = (   0.3643947   0.9504031   0.1892150  )
        29           Si  tau(  29) = (   0.4635739   0.2563784   0.0797903  )
        30           Si  tau(  30) = (   0.0764965   0.6236590   0.3934725  )
        31           Si  tau(  31) = (   0.2938964   0.2513311   0.8126156  )
        32           Si  tau(  32) = (   0.1525388   0.9575493   0.5938754  )
        33           Si  tau(  33) = (   0.1399887   0.1704901   0.6614690  )
        34           Si  tau(  34) = (   0.5945636   0.2356657   0.2704201  )
        35           Si  tau(  35) = (   0.0938541   0.4505760   0.0961888  )
        36           Si  tau(  36) = (   0.7628241   0.1271112   0.3879771  )
        37           Si  tau(  37) = (   0.2847369   0.8935933   0.0848664  )
        38           Si  tau(  38) = (   0.3355444   0.7534056   0.6535451  )
        39           Si  tau(  39) = (   0.6699216   0.8435190   0.4186353  )
        40           Si  tau(  40) = (   0.9675283   0.5465356   0.6430004  )
        41           Si  tau(  41) = (   0.0641280   0.8244097   0.9028898  )
        42           Si  tau(  42) = (   0.3628329   0.2876648   0.1921873  )
        43           Si  tau(  43) = (   0.1176564   0.4083185   0.3014319  )
        44           Si  tau(  44) = (   0.6308964   0.7598551   0.9192126  )
        45           Si  tau(  45) = (   0.9176166   0.8290236   0.2640704  )
        46           Si  tau(  46) = (   0.3781029   0.8892197   0.6859319  )
        47           Si  tau(  47) = (   0.7324873   0.4579243   0.3851014  )
        48           Si  tau(  48) = (   0.7973149   0.6791603   0.1428453  )
        49           Si  tau(  49) = (   0.7769088   0.3559377   0.2978383  )
        50           Si  tau(  50) = (   0.0106823   0.0837468   0.0981552  )
        51           Si  tau(  51) = (   0.2180644   0.8770319   0.4956186  )
        52           Si  tau(  52) = (   0.6011580   0.1123480   0.5716489  )
        53           Si  tau(  53) = (   0.6480270   1.0034388   0.8616221  )
        54           Si  tau(  54) = (   0.4544306   0.9375306   0.4491423  )
        55           Si  tau(  55) = (   0.2210027   0.2205207   0.0388075  )
        56           Si  tau(  56) = (   0.9321831   0.3075279   0.6877003  )
        57           Si  tau(  57) = (   0.9833266   0.9376235   0.9459856  )
        58           Si  tau(  58) = (   0.7203908   0.3457153   0.8160160  )
        59           Si  tau(  59) = (   0.0732270   0.4178541   0.8653411  )
        60           Si  tau(  60) = (   0.5531906   1.0096044   0.6429127  )
        61           Si  tau(  61) = (   0.4938517   0.1253893   0.2875904  )
        62           Si  tau(  62) = (   0.6655095   0.0481582   0.1853984  )
        63           Si  tau(  63) = (   0.0734653   0.0598571   0.2276668  )
        64           Si  tau(  64) = (   0.3467183   0.7141919   0.4169466  )
        65           Si  tau(  65) = (   0.7625483   0.4189468   0.6050594  )
        66           Si  tau(  66) = (   0.7242343   0.9453589   0.5040982  )
        67           Si  tau(  67) = (   0.0758289   0.6438670   0.6381074  )
        68           Si  tau(  68) = (   0.4350834   0.8808965   0.9333459  )
        69           Si  tau(  69) = (   0.4066795   0.7480774   0.9751354  )
        70           Si  tau(  70) = (   0.2587721   0.2950603   0.4393235  )
        71           Si  tau(  71) = (   0.8336113   0.4667551   0.4899171  )
        72           Si  tau(  72) = (   0.2053734   0.6680920   0.0689477  )
        73           Si  tau(  73) = (   0.4859167   0.7440347   0.2299500  )
        74           Si  tau(  74) = (   0.6458742   0.8987384   0.9641964  )
        75           Si  tau(  75) = (   0.3689474   0.3023037   0.3413713  )
        76           Si  tau(  76) = (   0.4959832   0.3958670   0.7435942  )
        77           Si  tau(  77) = (   0.7565635   0.3162255   0.9532116  )
        78           Si  tau(  78) = (   0.5365478   0.8170672   0.4611357  )
        79           Si  tau(  79) = (   0.7857779   0.5803017   0.0243837  )
        80           Si  tau(  80) = (   0.3195469   0.6706432   0.8852565  )
        81           Si  tau(  81) = (   0.8767098   0.3849207   0.9789131  )
        82           Si  tau(  82) = (   0.1375568   0.4024700   0.7362298  )
        83           Si  tau(  83) = (   0.3157430   0.0898090   0.4309305  )
        84           Si  tau(  84) = (   0.9068503   0.5265092   0.9848267  )
        85           Si  tau(  85) = (   0.3181635   0.7535490   0.0877188  )
        86           Si  tau(  86) = (   0.1609438   0.4697075   0.9664457  )
        87           Si  tau(  87) = (   0.2947653   0.5774742   0.2578372  )
        88           Si  tau(  88) = (   0.5578297   0.7279301   0.5748103  )
        89           Si  tau(  89) = (   0.8782468   0.8296282   0.6655933  )
        90           Si  tau(  90) = (   0.1989847   0.4644452   0.1962896  )
        91           Si  tau(  91) = (   0.9174709   0.2051382   0.5843344  )
        92           Si  tau(  92) = (   0.8643556   0.7265128   0.3499036  )
        93           Si  tau(  93) = (   0.6638255   0.9213475   0.6332234  )
        94           Si  tau(  94) = (   0.7720495   0.7282377   0.6796250  )
        95           Si  tau(  95) = (   0.8674610   0.0298060   0.3734963  )
        96           Si  tau(  96) = (   0.3431225   0.0883639   0.5700817  )
        97           Si  tau(  97) = (   0.8793012   0.8393577   0.0133283  )
        98           Si  tau(  98) = (   0.5840754   0.6789221   0.1464070  )
        99           Si  tau(  99) = (   0.4923538   0.8809820   0.1821106  )
       100           Si  tau( 100) = (   0.5145919   0.6362210   0.7605593  )
       101           Si  tau( 101) = (   0.8806003   0.3030539   0.3761817  )
       102           Si  tau( 102) = (   0.6832761   0.5701535   0.3146352  )
       103           Si  tau( 103) = (   0.5713332   0.4363563   0.9484709  )
       104           Si  tau( 104) = (   0.1676492   0.6113678   0.1962080  )
       105           Si  tau( 105) = (   0.4281539   0.4886595   0.1025056  )
       106           Si  tau( 106) = (   0.1666459   0.1684420   0.2540345  )
       107           Si  tau( 107) = (   0.6458066   0.5042420   0.6152038  )
       108           Si  tau( 108) = (   0.6411218   0.5631219   0.7457967  )
       109           Si  tau( 109) = (   0.3487800   0.7106414   0.2186187  )
       110           Si  tau( 110) = (   0.9967580   1.0141155   0.7252271  )
       111           Si  tau( 111) = (   0.2293194   0.0573557   0.6462066  )
       112           Si  tau( 112) = (   0.4962413   0.5525969   0.9755984  )
       113           Si  tau( 113) = (   0.5003367   0.1997536   0.5213859  )
       114           Si  tau( 114) = (   0.2118195   0.2860212   0.6994827  )
       115           Si  tau( 115) = (   0.0130788   0.6865536   0.1099028  )
       116           Si  tau( 116) = (   0.7681263   0.6640801   0.5532370  )
       117           Si  tau( 117) = (   0.9032669   0.0691786   0.6305767  )
       118           Si  tau( 118) = (   0.5708831   0.6065906   0.4000143  )
       119           Si  tau( 119) = (   0.3701559   0.4594536   0.7939209  )
       120           Si  tau( 120) = (   0.4557016   0.5217134   0.4249701  )
       121           Si  tau( 121) = (   0.0739450   0.2796895   0.2523129  )
       122           Si  tau( 122) = (   0.5657655   0.7661720   0.7922073  )
       123           Si  tau( 123) = (   0.4154552   0.0695749   0.8082424  )
       124           Si  tau( 124) = (   0.6648452   0.3640022   0.0476855  )
       125           Si  tau( 125) = (   0.2596103   0.3554891   0.0053742  )
       126           Si  tau( 126) = (   0.0118682   0.7729121   0.6761549  )
       127           Si  tau( 127) = (   0.1694770   0.4034873   0.4329548  )
       128           Si  tau( 128) = (   0.9017052   1.0022298   0.5097937  )
       129           Si  tau( 129) = (   0.8599943   0.7786098   0.8917904  )
       130           Si  tau( 130) = (   0.0549700   0.2164761   0.5465348  )
       131           Si  tau( 131) = (   0.8954636   0.3247440   0.1171855  )
       132           Si  tau( 132) = (   0.4288980   0.9807265   0.5836006  )
       133           Si  tau( 133) = (   0.6479297   0.2237317   0.7865596  )
       134           Si  tau( 134) = (   0.9841180   0.5453636   0.1045219  )
       135           Si  tau( 135) = (   0.7689682   0.6230925   0.7782493  )
       136           Si  tau( 136) = (   0.8433140   0.2047198   0.1787271  )
       137           Si  tau( 137) = (   0.5726125   0.3339276   0.3782200  )
       138           Si  tau( 138) = (   0.6582789   0.0545669   0.4533801  )
       139           Si  tau( 139) = (   0.9452472   0.2202374   0.2825630  )
       140           Si  tau( 140) = (   0.7316984   0.9717789   0.7486724  )
       141           Si  tau( 141) = (   0.3749423   0.0879897   0.9455435  )
       142           Si  tau( 142) = (   0.0759727   0.1243513   0.4413318  )
       143           Si  tau( 143) = (   0.5308630   0.4223419   0.6073535  )
       144           Si  tau( 144) = (   0.7200311   0.1688910   0.2543253  )
       145           Si  tau( 145) = (   0.5957201   0.9508707   0.2579766  )
       146           Si  tau( 146) = (   0.9857054   0.0965974   0.3333647  )
       147           Si  tau( 147) = (   0.9527696   0.4089582   0.4352978  )
       148           Si  tau( 148) = (   0.2778408   0.1773350   0.1661641  )
       149           Si  tau( 149) = (   0.7892884   0.0906335   0.7123773  )
       150           Si  tau( 150) = (   0.0690674   0.1215743   0.7754513  )
       151           Si  tau( 151) = (   0.0575230   0.8364359   0.2946132  )
       152           Si  tau( 152) = (   0.7538674   0.6849374   0.9069204  )
       153           Si  tau( 153) = (   0.3270107   0.5750629   0.3953006  )
       154           Si  tau( 154) = (   0.8633174   0.0982979   0.0831638  )
       155           Si  tau( 155) = (   0.8617338   0.1250557   0.8342905  )
       156           Si  tau( 156) = (   0.1065449   0.7679193   0.0396237  )
       157           Si  tau( 157) = (   0.5216742   0.4412181   0.2023357  )
       158           Si  tau( 158) = (   0.5746097   0.3140497   0.1495793  )
       159           Si  tau( 159) = (   0.4339328   0.5202402   0.5688480  )
       160           Si  tau( 160) = (   0.3255306   0.9636295   0.9569505  )
       161           Si  tau( 161) = (   0.8126827   0.6213457   0.2716628  )
       162           Si  tau( 162) = (   0.0614884   0.3583976   0.5157312  )
       163           Si  tau( 163) = (   0.1693271   0.8476048   0.8103972  )
       164           Si  tau( 164) = (   0.4766854   0.3278972   0.9395552  )
       165           Si  tau( 165) = (   0.5362006   0.6679028   0.0088914  )
       166           Si  tau( 166) = (   0.7044702   0.8621413   0.2812865  )
       167           Si  tau( 167) = (   0.8275515   0.3970713   0.7311905  )
       168           Si  tau( 168) = (   0.4628133   0.4115389   0.3344052  )
       169           Si  tau( 169) = (   0.8669723   0.8637365   0.5136312  )
       170           Si  tau( 170) = (   0.4742096   0.8747958   0.7953916  )
       171           Si  tau( 171) = (   0.2958647   0.3158265   0.5819646  )
       172           Si  tau( 172) = (   0.5271199   0.9084246   0.0428495  )
       173           Si  tau( 173) = (   0.9040555   0.7708490   0.1341138  )
       174           Si  tau( 174) = (   0.2268289   0.9666563   0.8567510  )
       175           Si  tau( 175) = (   0.6922092   0.1829910   0.6568529  )
       176           Si  tau( 176) = (   0.4248754   0.1791994   0.3970610  )
       177           Si  tau( 177) = (   0.3052262   0.4625830   0.5933377  )
       178           Si  tau( 178) = (   0.7776329   0.7636773   0.4552202  )
       179           Si  tau( 179) = (   0.9131286   0.9974349   0.8389813  )
       180           Si  tau( 180) = (   0.2316409   0.5201482   0.4867826  )
       181           Si  tau( 181) = (   0.9967949   0.7895776   0.5254873  )
       182           Si  tau( 182) = (   0.2463275   0.4962922   0.7211685  )
       183           Si  tau( 183) = (   0.7143868   0.2907527   0.5623768  )
       184           Si  tau( 184) = (   0.3946824   0.2151031   0.6136156  )
       185           Si  tau( 185) = (   0.0863151   0.8950112   0.7024649  )
       186           Si  tau( 186) = (   0.5310635   1.0044699   0.7823268  )
       187           Si  tau( 187) = (   0.7509778   0.8814964   0.0626783  )
       188           Si  tau( 188) = (   0.1559412   0.6384506   0.5160976  )
       189           Si  tau( 189) = (   0.3120668   0.9554968   0.4145260  )
       190           Si  tau( 190) = (   0.7861497   0.9972999   0.1408240  )
       191           Si  tau( 191) = (   0.9186859   0.5305358   0.2334689  )
       192           Si  tau( 192) = (   0.9836110   0.5312488   0.8639550  )
       193           Si  tau( 193) = (   0.1992304   0.6090847   0.9446344  )
       194           Si  tau( 194) = (   0.6421337   0.7876873   0.6740988  )
       195           Si  tau( 195) = (   0.1708702   0.6214331   0.7419532  )
       196           Si  tau( 196) = (   0.8154573   0.2289000   0.4791474  )
       197           Si  tau( 197) = (   0.7249597   0.4795714   0.1074155  )
       198           Si  tau( 198) = (   0.3891228   0.0839869   0.1857250  )
       199           Si  tau( 199) = (   0.9765187   0.3191320   0.9001665  )
       200           Si  tau( 200) = (   0.8315327   0.4272958   0.1903990  )
       201           Si  tau( 201) = (   0.0819951   0.6331382   0.8554874  )
       202           Si  tau( 202) = (   0.2613469   0.7443065   0.5298326  )
       203           Si  tau( 203) = (   0.4546790   0.1153875   0.0617060  )
       204           Si  tau( 204) = (   0.6941412   0.7794023   0.1574645  )
       205           Si  tau( 205) = (   0.9641230   0.2193131   0.7994960  )
       206           Si  tau( 206) = (   0.3130136   0.4036269   0.1257298  )
       207           Si  tau( 207) = (   0.0760533   0.2011576   0.0443104  )
       208           Si  tau( 208) = (   0.5459520   0.0151470   0.3684281  )
       209           Si  tau( 209) = (   0.0140679   0.4997152   0.3390533  )
       210           Si  tau( 210) = (   0.7968114   0.1734427   0.9559339  )
       211           Si  tau( 211) = (   0.1431847   0.8988912   0.0938718  )
       212           Si  tau( 212) = (   0.0377470   0.3206611   0.1220367  )
       213           Si  tau( 213) = (   0.1464968   0.0710457   0.8909640  )
       214           Si  tau( 214) = (   0.8277550   0.9413187   0.2698307  )
       215           Si  tau( 215) = (   0.2552859   0.7334618   0.7712185  )
       216           Si  tau( 216) = (   0.0282371   0.4121518   0.6430950  )
       217           H   tau( 217) = (   0.9128516   0.9220485   0.6716065  )
       218           H   tau( 218) = (   0.0450463   0.6885985   0.1979127  )
       219           H   tau( 219) = (   0.8994556   0.8752974   0.4234726  )
       220           H   tau( 220) = (   0.3659527   0.5307615   0.2186526  )
       221           H   tau( 221) = (   0.2661599   0.5785868   0.1311167  )
       222           H   tau( 222) = (   0.0591207   0.9476084   0.4375929  )
       223           H   tau( 223) = (   0.6393831   0.4060544   0.3802881  )
       224           H   tau( 224) = (   0.4109590   0.5759070   0.1290615  )
       225           H   tau( 225) = (   0.0804946   0.1796938   0.9527406  )
       226           H   tau( 226) = (   0.0081328   0.2624572   0.9715000  )
       227           H   tau( 227) = (   0.6267084   0.0528375   0.0065562  )
       228           H   tau( 228) = (   0.6084425   0.1773568   0.9539335  )
       229           H   tau( 229) = (   0.8572769   0.6034694   0.1007461  )

   Crystallographic axes

     site n.     atom                  positions (cryst. coord.)
         1           Si  tau(   1) = (  0.0504850  0.9931200  0.5138960  )
         2           Si  tau(   2) = (  0.9588020  0.6631670  0.4474370  )
         3           Si  tau(   3) = (  0.2682850  0.9015950  0.2883830  )
         4           Si  tau(   4) = (  0.3081480  0.9776910  0.7503090  )
         5           Si  tau(   5) = (  0.6250560  0.5335980  0.1895190  )
         6           Si  tau(   6) = (  0.6367930  0.5999920  0.5301800  )
         7           Si  tau(   7) = (  0.9860170  0.7130210  0.8283480  )
         8           Si  tau(   8) = (  0.6704620  0.1120420  0.9042370  )
         9           Si  tau(   9) = (  0.4882620  0.7075540  0.3732160  )
        10           Si  tau(  10) = (  0.8839120  0.5103480  0.7635110  )
        11           Si  tau(  11) = (  0.5700050  0.0331838  0.0789347  )
        12           Si  tau(  12) = (  0.5790190  0.3035700  0.5219190  )
        13           Si  tau(  13) = (  0.1347640  0.9250520  0.2330600  )
        14           Si  tau(  14) = (  0.4228970  0.5538270  0.8583000  )
        15           Si  tau(  15) = (  0.4113210  0.1802190  0.7563880  )
        16           Si  tau(  16) = (  0.8874880  0.5735380  0.5335900  )
        17           Si  tau(  17) = (  0.6150400  0.4226020  0.8181910  )
        18           Si  tau(  18) = (  0.5152910  0.2517640  0.8139790  )
        19           Si  tau(  19) = (  0.8365020  0.8607100  0.7976730  )
        20           Si  tau(  20) = (  0.2548140  0.1426790  0.9237110  )
        21           Si  tau(  21) = (  0.3457940  0.3383150  0.8946890  )
        22           Si  tau(  22) = (  0.2033020  0.1580180  0.3947980  )
        23           Si  tau(  23) = (  0.0915337  0.8352950  0.4353130  )
        24           Si  tau(  24) = (  0.0787877  0.9904750  0.0136068  )
        25           Si  tau(  25) = (  0.4483390  0.6377130  0.6368370  )
        26           Si  tau(  26) = (  0.2687820  0.7619280  0.3160100  )
        27           Si  tau(  27) = (  0.1374010  0.7016330  0.2978500  )
        28           Si  tau(  28) = (  0.3661630  0.9379750  0.1900280  )
        29           Si  tau(  29) = (  0.4640340  0.2524450  0.0801331  )
        30           Si  tau(  30) = (  0.0774990  0.6100620  0.3951630  )
        31           Si  tau(  31) = (  0.2939170  0.2326360  0.8161070  )
        32           Si  tau(  32) = (  0.1540840  0.9368800  0.5964270  )
        33           Si  tau(  33) = (  0.1399380  0.1555810  0.6643110  )
        34           Si  tau(  34) = (  0.5948710  0.2280680  0.2715820  )
        35           Si  tau(  35) = (  0.0946886  0.4445530  0.0966021  )
        36           Si  tau(  36) = (  0.7628480  0.1181210  0.3896440  )
        37           Si  tau(  37) = (  0.2864540  0.8837880  0.0852310  )
        38           Si  tau(  38) = (  0.3366510  0.7333790  0.6563530  )
        39           Si  tau(  39) = (  0.6713440  0.8274230  0.4204340  )
        40           Si  tau(  40) = (  0.9682320  0.5285950  0.6457630  )
        41           Si  tau(  41) = (  0.0652288  0.7987020  0.9067690  )
        42           Si  tau(  42) = (  0.3632890  0.2811770  0.1930130  )
        43           Si  tau(  43) = (  0.1182870  0.3985310  0.3027270  )
        44           Si  tau(  44) = (  0.6318600  0.7344020  0.9231620  )
        45           Si  tau(  45) = (  0.9191010  0.8161820  0.2652050  )
        46           Si  tau(  46) = (  0.3794590  0.8673090  0.6888790  )
        47           Si  tau(  47) = (  0.7331670  0.4459970  0.3867560  )
        48           Si  tau(  48) = (  0.7985740  0.6701250  0.1434590  )
        49           Si  tau(  49) = (  0.7774380  0.3466970  0.2991180  )
        50           Si  tau(  50) = (  0.0107903  0.0810053  0.0985769  )
        51           Si  tau(  51) = (  0.2195080  0.8590770  0.4977480  )
        52           Si  tau(  52) = (  0.6010450  0.0997802  0.5741050  )
        53           Si  tau(  53) = (  0.6495060  0.9769440  0.8653240  )
        54           Si  tau(  54) = (  0.4560210  0.9199670  0.4510720  )
        55           Si  tau(  55) = (  0.2214160  0.2177400  0.0389742  )
        56           Si  tau(  56) = (  0.9323880  0.2908480  0.6906550  )
        57           Si  tau(  57) = (  0.9846260  0.9100200  0.9500500  )
        58           Si  tau(  58) = (  0.7205960  0.3260970  0.8195220  )
        59           Si  tau(  59) = (  0.0735459  0.3965860  0.8690590  )
        60           Si  tau(  60) = (  0.5548100  0.9874730  0.6456750  )
        61           Si  tau(  61) = (  0.4939310  0.1184430  0.2888260  )
        62           Si  tau(  62) = (  0.6654960  0.0439761  0.1861950  )
        63           Si  tau(  63) = (  0.0734502  0.0547150  0.2286450  )
        64           Si  tau(  64) = (  0.3478860  0.6993010  0.4187380  )
        65           Si  tau(  65) = (  0.7630220  0.4029280  0.6076590  )
        66           Si  tau(  66) = (  0.7258080  0.9266140  0.5062640  )
        67           Si  tau(  67) = (  0.0767279  0.6251440  0.6408490  )
        68           Si  tau(  68) = (  0.4362780  0.8540620  0.9373560  )
        69           Si  tau(  69) = (  0.4075870  0.7216010  0.9793250  )
        70           Si  tau(  70) = (  0.2590980  0.2835120  0.4412110  )
        71           Si  tau(  71) = (  0.8342470  0.4526300  0.4920220  )
        72           Si  tau(  72) = (  0.2066540  0.6606500  0.0692439  )
        73           Si  tau(  73) = (  0.4872530  0.7326520  0.2309380  )
        74           Si  tau(  74) = (  0.6470860  0.8711190  0.9683390  )
        75           Si  tau(  75) = (  0.3693450  0.2926690  0.3428380  )
        76           Si  tau(  76) = (  0.4963300  0.3772580  0.7467890  )
        77           Si  tau(  77) = (  0.7566300  0.2941020  0.9573070  )
        78           Si  tau(  78) = (  0.5378930  0.8003520  0.4631170  )
        79           Si  tau(  79) = (  0.7869110  0.5745550  0.0244885  )
        80           Si  tau(  80) = (  0.3203540  0.6466840  0.8890600  )
        81           Si  tau(  81) = (  0.8768970  0.3616560  0.9831190  )
        82           Si  tau(  82) = (  0.1379210  0.3839500  0.7393930  )
        83           Si  tau(  83) = (  0.3156680  0.0802886  0.4327820  )
        84           Si  tau(  84) = (  0.9073140  0.5018430  0.9890580  )
        85           Si  tau(  85) = (  0.3196020  0.7449540  0.0880957  )
        86           Si  tau(  86) = (  0.1613060  0.4459270  0.9705980  )
        87           Si  tau(  87) = (  0.2957560  0.5670360  0.2589450  )
        88           Si  tau(  88) = (  0.5589320  0.7097250  0.5772800  )
        89           Si  tau(  89) = (  0.8794970  0.8086680  0.6684530  )
        90           Si  tau(  90) = (  0.1997880  0.4562740  0.1971330  )
        91           Si  tau(  91) = (  0.9175340  0.1914740  0.5868450  )
        92           Si  tau(  92) = (  0.8655870  0.7128650  0.3514070  )
        93           Si  tau(  93) = (  0.6652760  0.9002110  0.6359440  )
        94           Si  tau(  94) = (  0.7730910  0.7079120  0.6825450  )
        95           Si  tau(  95) = (  0.8673010  0.0219893  0.3751010  )
        96           Si  tau(  96) = (  0.3429630  0.0760449  0.5725310  )
        97           Si  tau(  97) = (  0.8809530  0.8314890  0.0133856  )
        98           Si  tau(  98) = (  0.5853320  0.6698170  0.1470360  )
        99           Si  tau(  99) = (  0.4939890  0.8693260  0.1828930  )
       100           Si  tau( 100) = (  0.5154040  0.6150930  0.7638270  )
       101           Si  tau( 101) = (  0.8809790  0.2927090  0.3777980  )
       102           Si  tau( 102) = (  0.6842190  0.5586340  0.3159870  )
       103           Si  tau( 103) = (  0.5716400  0.4132410  0.9525460  )
       104           Si  tau( 104) = (  0.1687430  0.6018680  0.1970510  )
       105           Si  tau( 105) = (  0.4290600  0.4821640  0.1029460  )
       106           Si  tau( 106) = (  0.1668300  0.1617840  0.2551260  )
       107           Si  tau( 107) = (  0.6464430  0.4872460  0.6178470  )
       108           Si  tau( 108) = (  0.6417980  0.5429540  0.7490010  )
       109           Si  tau( 109) = (  0.3500570  0.6997900  0.2195580  )
       110           Si  tau( 110) = (  0.9983380  0.9902800  0.7283430  )
       111           Si  tau( 111) = (  0.2290540  0.0437793  0.6489830  )
       112           Si  tau( 112) = (  0.4967620  0.5278810  0.9797900  )
       113           Si  tau( 113) = (  0.5004260  0.1874100  0.5236260  )
       114           Si  tau( 114) = (  0.2119750  0.2692980  0.7024880  )
       115           Si  tau( 115) = (  0.0143719  0.6781170  0.1103750  )
       116           Si  tau( 116) = (  0.7691150  0.6468890  0.5556140  )
       117           Si  tau( 117) = (  0.9030340  0.0558110  0.6332860  )
       118           Si  tau( 118) = (  0.5718480  0.5930160  0.4017330  )
       119           Si  tau( 119) = (  0.3705990  0.4392520  0.7973320  )
       120           Si  tau( 120) = (  0.4564840  0.5084030  0.4267960  )
       121           Si  tau( 121) = (  0.0743501  0.2720590  0.2533970  )
       122           Si  tau( 122) = (  0.5668160  0.7432280  0.7956110  )
       123           Si  tau( 123) = (  0.4151190  0.0526138  0.8117150  )
       124           Si  tau( 124) = (  0.6655370  0.3597430  0.0478904  )
       125           Si  tau( 125) = (  0.2603100  0.3521620  0.0053973  )
       126           Si  tau( 126) = (  0.0130001  0.7522520  0.6790600  )
       127           Si  tau( 127) = (  0.1700210  0.3910860  0.4348150  )
       128           Si  tau( 128) = (  0.9033880  0.9828550  0.5119840  )
       129           Si  tau( 129) = (  0.8610110  0.7535410  0.8956220  )
       130           Si  tau( 130) = (  0.0550776  0.2034730  0.5488830  )
       131           Si  tau( 131) = (  0.8960370  0.3194360  0.1176890  )
       132           Si  tau( 132) = (  0.4304950  0.9600550  0.5861080  )
       133           Si  tau( 133) = (  0.6479110  0.2058130  0.7899390  )
       134           Si  tau( 134) = (  0.9851350  0.5383140  0.1049710  )
       135           Si  tau( 135) = (  0.7697440  0.6017260  0.7815930  )
       136           Si  tau( 136) = (  0.8436140  0.1992550  0.1794950  )
       137           Si  tau( 137) = (  0.5730510  0.3232620  0.3798450  )
       138           Si  tau( 138) = (  0.6581210  0.0449119  0.4553280  )
       139           Si  tau( 139) = (  0.9455170  0.2125340  0.2837770  )
       140           Si  tau( 140) = (  0.7331810  0.9478530  0.7518890  )
       141           Si  tau( 141) = (  0.3745620  0.0680876  0.9496060  )
       142           Si  tau( 142) = (  0.0759599  0.1143080  0.4432280  )
       143           Si  tau( 143) = (  0.5313420  0.4062460  0.6099630  )
       144           Si  tau( 144) = (  0.7202160  0.1622230  0.2554180  )
       145           Si  tau( 145) = (  0.5974490  0.9370490  0.2590850  )
       146           Si  tau( 146) = (  0.9857010  0.0889869  0.3347970  )
       147           Si  tau( 147) = (  0.9533230  0.3964600  0.4371680  )
       148           Si  tau( 148) = (  0.2780940  0.1723720  0.1668780  )
       149           Si  tau( 149) = (  0.7890500  0.0754188  0.7154380  )
       150           Si  tau( 150) = (  0.0688532  0.1048050  0.7787830  )
       151           Si  tau( 151) = (  0.0590041  0.8229100  0.2958790  )
       152           Si  tau( 152) = (  0.7546900  0.6604110  0.9108170  )
       153           Si  tau( 153) = (  0.3279160  0.5618690  0.3969990  )
       154           Si  tau( 154) = (  0.8634630  0.0957275  0.0835211  )
       155           Si  tau( 155) = (  0.8614920  0.1070660  0.8378750  )
       156           Si  tau( 156) = (  0.1080400  0.7601660  0.0397939  )
       157           Si  tau( 157) = (  0.5224280  0.4331350  0.2032050  )
       158           Si  tau( 158) = (  0.5751430  0.3081840  0.1502220  )
       159           Si  tau( 159) = (  0.4346280  0.5040360  0.5712920  )
       160           Si  tau( 160) = (  0.3268750  0.9355690  0.9610620  )
       161           Si  tau( 161) = (  0.8137520  0.6102310  0.2728300  )
       162           Si  tau( 162) = (  0.0618947  0.3447320  0.5179470  )
       163           Si  tau( 163) = (  0.1705280  0.8235560  0.8138790  )
       164           Si  tau( 164) = (  0.4767830  0.3059440  0.9435920  )
       165           Si  tau( 165) = (  0.5375160  0.6616760  0.0089297  )
       166           Si  tau( 166) = (  0.7060100  0.8486520  0.2824950  )
       167           Si  tau( 167) = (  0.8279080  0.3787020  0.7343320  )
       168           Si  tau( 168) = (  0.4634310  0.4010560  0.3358420  )
       169           Si  tau( 169) = (  0.8683790  0.8455380  0.5158380  )
       170           Si  tau( 170) = (  0.4754730  0.8508040  0.7988090  )
       171           Si  tau( 171) = (  0.2961480  0.3012080  0.5844650  )
       172           Si  tau( 172) = (  0.5288910  0.8993340  0.0430336  )
       173           Si  tau( 173) = (  0.9055010  0.7611600  0.1346900  )
       174           Si  tau( 174) = (  0.2282380  0.9405930  0.8604320  )
       175           Si  tau( 175) = (  0.6921860  0.1680620  0.6596750  )
       176           Si  tau( 176) = (  0.4249970  0.1695540  0.3987670  )
       177           Si  tau( 177) = (  0.3057930  0.4464060  0.5958870  )
       178           Si  tau( 178) = (  0.7788760  0.7475650  0.4571760  )
       179           Si  tau( 179) = (  0.9146090  0.9714520  0.8425860  )
       180           Si  tau( 180) = (  0.2323840  0.5056030  0.4888740  )
       181           Si  tau( 181) = (  0.9980480  0.7718110  0.5277450  )
       182           Si  tau( 182) = (  0.2468860  0.4772270  0.7242670  )
       183           Si  tau( 183) = (  0.7146320  0.2767570  0.5647930  )
       184           Si  tau( 184) = (  0.3947480  0.2007570  0.6162520  )
       185           Si  tau( 185) = (  0.0876730  0.8727140  0.7054830  )
       186           Si  tau( 186) = (  0.5325910  0.9795680  0.7856880  )
       187           Si  tau( 187) = (  0.7526840  0.8722490  0.0629476  )
       188           Si  tau( 188) = (  0.1569010  0.6222420  0.5183150  )
       189           Si  tau( 189) = (  0.3137130  0.9384700  0.4163070  )
       190           Si  tau( 190) = (  0.7880390  0.9854250  0.1414290  )
       191           Si  tau( 191) = (  0.9195980  0.5210150  0.2344720  )
       192           Si  tau( 192) = (  0.9841550  0.5089820  0.8676670  )
       193           Si  tau( 193) = (  0.1998810  0.5844830  0.9486930  )
       194           Si  tau( 194) = (  0.6432960  0.7669350  0.6769950  )
       195           Si  tau( 195) = (  0.1716640  0.6008150  0.7451410  )
       196           Si  tau( 196) = (  0.8156290  0.2171460  0.4812060  )
       197           Si  tau( 197) = (  0.7258450  0.4730590  0.1078770  )
       198           Si  tau( 198) = (  0.3891800  0.0794738  0.1865230  )
       199           Si  tau( 199) = (  0.9766220  0.2980540  0.9040340  )
       200           Si  tau( 200) = (  0.8322660  0.4195800  0.1912170  )
       201           Si  tau( 201) = (  0.0827455  0.6101200  0.8591630  )
       202           Si  tau( 202) = (  0.2625080  0.7268620  0.5321090  )
       203           Si  tau( 203) = (  0.4548710  0.1130960  0.0619711  )
       204           Si  tau( 204) = (  0.6955900  0.7691640  0.1581410  )
       205           Si  tau( 205) = (  0.9640880  0.2011730  0.8029310  )
       206           Si  tau( 206) = (  0.3137380  0.3974320  0.1262700  )
       207           Si  tau( 207) = (  0.0764251  0.1984410  0.0445008  )
       208           Si  tau( 208) = (  0.5457660  0.0075655  0.3700110  )
       209           Si  tau( 209) = (  0.0148572  0.4883400  0.3405100  )
       210           Si  tau( 210) = (  0.7965940  0.1525570  0.9600410  )
       211           Si  tau( 211) = (  0.1449070  0.8888560  0.0942751  )
       212           Si  tau( 212) = (  0.0383095  0.3152920  0.1225610  )
       213           Si  tau( 213) = (  0.1461150  0.0523998  0.8947920  )
       214           Si  tau( 214) = (  0.8294580  0.9273440  0.2709900  )
       215           Si  tau( 215) = (  0.2562840  0.7112380  0.7745320  )
       216           Si  tau( 216) = (  0.0286750  0.3954260  0.6458580  )
       217           H   tau( 217) = (  0.9142810  0.9001300  0.6744920  )
       218           H   tau( 218) = (  0.0462918  0.6783650  0.1987630  )
       219           H   tau( 219) = (  0.9009380  0.8588160  0.4252920  )
       220           H   tau( 220) = (  0.3668740  0.5215380  0.2195920  )
       221           H   tau( 221) = (  0.2672270  0.5706990  0.1316800  )
       222           H   tau( 222) = (  0.0607378  0.9301870  0.4394730  )
       223           H   tau( 223) = (  0.6399630  0.3946940  0.3819220  )
       224           H   tau( 224) = (  0.4120220  0.5680850  0.1296160  )
       225           H   tau( 225) = (  0.0802914  0.1588160  0.9568340  )
       226           H   tau( 226) = (  0.0080823  0.2404510  0.9756740  )
       227           H   tau( 227) = (  0.6268090  0.0522266  0.0065844  )
       228           H   tau( 228) = (  0.6082340  0.1564760  0.9580320  )
       229           H   tau( 229) = (  0.8584110  0.5959700  0.1011790  )

     number of k points=     8  Marzari-Vanderbilt smearing, width (Ry)=  0.0500
                       cart. coord. in units 2pi/alat
        k(    1) = (   0.0000000   0.0000000   0.0000000), wk =   0.2500000
        k(    2) = (   0.0000000   0.0000000  -0.5021482), wk =   0.2500000
        k(    3) = (   0.0000000  -0.4954731   0.0101029), wk =   0.2500000
        k(    4) = (   0.0000000  -0.4954731  -0.4920453), wk =   0.2500000
        k(    5) = (  -0.5000000  -0.0009886   0.0002931), wk =   0.2500000
        k(    6) = (  -0.5000000  -0.0009886  -0.5018551), wk =   0.2500000
        k(    7) = (  -0.5000000  -0.4964617   0.0103960), wk =   0.2500000
        k(    8) = (  -0.5000000  -0.4964617  -0.4917522), wk =   0.2500000

                       cryst. coord.
        k(    1) = (   0.0000000   0.0000000   0.0000000), wk =   0.2500000
        k(    2) = (   0.0000000   0.0000000  -0.5000000), wk =   0.2500000
        k(    3) = (   0.0000000  -0.5000000   0.0000000), wk =   0.2500000
        k(    4) = (   0.0000000  -0.5000000  -0.5000000), wk =   0.2500000
        k(    5) = (  -0.5000000   0.0000000   0.0000000), wk =   0.2500000
        k(    6) = (  -0.5000000   0.0000000  -0.5000000), wk =   0.2500000
        k(    7) = (  -0.5000000  -0.5000000   0.0000000), wk =   0.2500000
        k(    8) = (  -0.5000000  -0.5000000  -0.5000000), wk =   0.2500000

     Dense  grid:  1087587 G-vectors     FFT dimensions: ( 128, 135, 128)

     Dynamical RAM for                 wfc:     136.64 MB

     Dynamical RAM for     wfc (w. buffer):    1229.75 MB

     Dynamical RAM for           str. fact:       4.15 MB

     Dynamical RAM for           local pot:       0.00 MB

     Dynamical RAM for          nlocal pot:     280.02 MB

     Dynamical RAM for                qrad:       1.75 MB

     Dynamical RAM for          rho,v,vnew:      12.55 MB

     Dynamical RAM for               rhoin:       4.18 MB

     Dynamical RAM for            rho*nmix:      33.19 MB

     Dynamical RAM for           G-vectors:       8.82 MB

     Dynamical RAM for          h,s,v(r/c):     203.41 MB

     Dynamical RAM for          <psi|beta>:       8.68 MB

     Dynamical RAM for                 psi:     546.56 MB

     Dynamical RAM for                hpsi:     546.56 MB

     Dynamical RAM for      wfcinit/wfcrot:     472.38 MB

     Estimated static dynamical RAM per process >       1.55 GB

     Estimated max dynamical RAM per process >       2.83 GB

     Estimated total dynamical RAM >      22.63 GB

     Initial potential from superposition of free atoms

     starting charge  876.87907, renormalised to  877.00000
     Starting wfc are  877 randomized atomic wfcs

     total cpu time spent up to now is      258.8 secs

     Self-consistent Calculation

     iteration #  1     ecut=    42.00 Ry     beta= 0.30
     Davidson diagonalization with overlap
     ethr =  1.00E-02,  avg # of iterations =  3.0

     Threshold (ethr) on eigenvalues was too large:
     Diagonalizing with lowered threshold

     Davidson diagonalization with overlap
     ethr =  8.78E-04,  avg # of iterations =  2.0

     total cpu time spent up to now is     1258.0 secs

     total energy              =   -1713.31088207 Ry
     Harris-Foulkes estimate   =   -1714.89772134 Ry
     estimated scf accuracy    <       7.57910782 Ry

     iteration #  2     ecut=    42.00 Ry     beta= 0.30
     Davidson diagonalization with overlap
     ethr =  8.64E-04,  avg # of iterations =  3.0

     total cpu time spent up to now is     1644.9 secs

     total energy              =   -1712.78364852 Ry
     Harris-Foulkes estimate   =   -1713.81667684 Ry
     estimated scf accuracy    <       4.26705322 Ry

     iteration #  3     ecut=    42.00 Ry     beta= 0.30
     Davidson diagonalization with overlap
     ethr =  4.87E-04,  avg # of iterations =  5.0

     total cpu time spent up to now is     2208.0 secs

     total energy              =   -1712.71510806 Ry
     Harris-Foulkes estimate   =   -1713.91191546 Ry
     estimated scf accuracy    <       6.78125022 Ry

     iteration #  4     ecut=    42.00 Ry     beta= 0.30
     Davidson diagonalization with overlap
     ethr =  4.87E-04,  avg # of iterations =  4.5

     total cpu time spent up to now is     2724.5 secs

     total energy              =   -1713.06166639 Ry
     Harris-Foulkes estimate   =   -1713.33460837 Ry
     estimated scf accuracy    <       1.20431403 Ry

     iteration #  5     ecut=    42.00 Ry     beta= 0.30
     Davidson diagonalization with overlap
     ethr =  1.37E-04,  avg # of iterations =  5.2

     total cpu time spent up to now is     3252.8 secs

     total energy              =   -1713.15615358 Ry
     Harris-Foulkes estimate   =   -1713.26161538 Ry
     estimated scf accuracy    <       0.57757575 Ry

     iteration #  6     ecut=    42.00 Ry     beta= 0.30
     Davidson diagonalization with overlap
     ethr =  6.59E-05,  avg # of iterations =  4.4

     total cpu time spent up to now is     3731.1 secs

     total energy              =   -1713.19063966 Ry
     Harris-Foulkes estimate   =   -1713.24564723 Ry
     estimated scf accuracy    <       0.35330496 Ry

     iteration #  7     ecut=    42.00 Ry     beta= 0.30
     Davidson diagonalization with overlap
     ethr =  4.03E-05,  avg # of iterations =  3.0

     total cpu time spent up to now is     4122.8 secs

     total energy              =   -1713.21553467 Ry
     Harris-Foulkes estimate   =   -1713.22503633 Ry
     estimated scf accuracy    <       0.04927435 Ry

     iteration #  8     ecut=    42.00 Ry     beta= 0.30
     Davidson diagonalization with overlap
     ethr =  5.62E-06,  avg # of iterations = 12.8

     total cpu time spent up to now is     4896.7 secs

     total energy              =   -1713.21825350 Ry
     Harris-Foulkes estimate   =   -1713.22520240 Ry
     estimated scf accuracy    <       0.03891305 Ry

     iteration #  9     ecut=    42.00 Ry     beta= 0.30
     Davidson diagonalization with overlap
     ethr =  4.44E-06,  avg # of iterations =  5.5

     total cpu time spent up to now is     5391.6 secs

     total energy              =   -1713.22096198 Ry
     Harris-Foulkes estimate   =   -1713.22349673 Ry
     estimated scf accuracy    <       0.01552560 Ry

     iteration # 10     ecut=    42.00 Ry     beta= 0.30
     Davidson diagonalization with overlap
     ethr =  1.77E-06,  avg # of iterations =  4.2

     total cpu time spent up to now is     5832.8 secs

     total energy              =   -1713.22184354 Ry
     Harris-Foulkes estimate   =   -1713.22283892 Ry
     estimated scf accuracy    <       0.00544470 Ry

     iteration # 11     ecut=    42.00 Ry     beta= 0.30
     Davidson diagonalization with overlap
     ethr =  6.21E-07,  avg # of iterations =  3.0

     total cpu time spent up to now is     6247.9 secs

     total energy              =   -1713.22230463 Ry
     Harris-Foulkes estimate   =   -1713.22261412 Ry
     estimated scf accuracy    <       0.00180582 Ry

     iteration # 12     ecut=    42.00 Ry     beta= 0.30
     Davidson diagonalization with overlap
     ethr =  2.06E-07,  avg # of iterations =  3.0

     total cpu time spent up to now is     6656.2 secs

     total energy              =   -1713.22243935 Ry
     Harris-Foulkes estimate   =   -1713.22254730 Ry
     estimated scf accuracy    <       0.00050273 Ry

     iteration # 13     ecut=    42.00 Ry     beta= 0.30
     Davidson diagonalization with overlap
     ethr =  5.73E-08,  avg # of iterations =  3.0

     total cpu time spent up to now is     7076.3 secs

     total energy              =   -1713.22247635 Ry
     Harris-Foulkes estimate   =   -1713.22251783 Ry
     estimated scf accuracy    <       0.00020282 Ry

     iteration # 14     ecut=    42.00 Ry     beta= 0.30
     Davidson diagonalization with overlap
     ethr =  2.31E-08,  avg # of iterations =  3.0

     total cpu time spent up to now is     7500.6 secs

     total energy              =   -1713.22249499 Ry
     Harris-Foulkes estimate   =   -1713.22251700 Ry
     estimated scf accuracy    <       0.00012675 Ry

     iteration # 15     ecut=    42.00 Ry     beta= 0.30
     Davidson diagonalization with overlap
     ethr =  1.45E-08,  avg # of iterations =  3.0

     total cpu time spent up to now is     7894.3 secs

     total energy              =   -1713.22250538 Ry
     Harris-Foulkes estimate   =   -1713.22250871 Ry
     estimated scf accuracy    <       0.00001798 Ry

     iteration # 16     ecut=    42.00 Ry     beta= 0.30
     Davidson diagonalization with overlap
     ethr =  2.05E-09,  avg # of iterations =  3.0

     total cpu time spent up to now is     8330.3 secs

     total energy              =   -1713.22250746 Ry
     Harris-Foulkes estimate   =   -1713.22250933 Ry
     estimated scf accuracy    <       0.00001343 Ry

     iteration # 17     ecut=    42.00 Ry     beta= 0.30
     Davidson diagonalization with overlap
     ethr =  1.53E-09,  avg # of iterations =  3.0

     total cpu time spent up to now is     8726.8 secs

     total energy              =   -1713.22250876 Ry
     Harris-Foulkes estimate   =   -1713.22250919 Ry
     estimated scf accuracy    <       0.00000372 Ry

     iteration # 18     ecut=    42.00 Ry     beta= 0.30
     Davidson diagonalization with overlap
     ethr =  4.25E-10,  avg # of iterations =  3.0

     total cpu time spent up to now is     9144.5 secs

     total energy              =   -1713.22250917 Ry
     Harris-Foulkes estimate   =   -1713.22250932 Ry
     estimated scf accuracy    <       0.00000164 Ry

     iteration # 19     ecut=    42.00 Ry     beta= 0.30
     Davidson diagonalization with overlap
     ethr =  1.86E-10,  avg # of iterations =  3.0

     total cpu time spent up to now is     9553.5 secs

     total energy              =   -1713.22250936 Ry
     Harris-Foulkes estimate   =   -1713.22250940 Ry
     estimated scf accuracy    <       0.00000075 Ry

     iteration # 20     ecut=    42.00 Ry     beta= 0.30
     Davidson diagonalization with overlap
     ethr =  8.55E-11,  avg # of iterations =  3.0

     total cpu time spent up to now is     9965.2 secs

     total energy              =   -1713.22250945 Ry
     Harris-Foulkes estimate   =   -1713.22250948 Ry
     estimated scf accuracy    <       0.00000051 Ry

     iteration # 21     ecut=    42.00 Ry     beta= 0.30
     Davidson diagonalization with overlap
     ethr =  5.80E-11,  avg # of iterations =  3.0

     total cpu time spent up to now is    10361.9 secs

     total energy              =   -1713.22250951 Ry
     Harris-Foulkes estimate   =   -1713.22250952 Ry
     estimated scf accuracy    <       0.00000018 Ry

     iteration # 22     ecut=    42.00 Ry     beta= 0.30
     Davidson diagonalization with overlap
     ethr =  2.01E-11,  avg # of iterations =  3.0

     total cpu time spent up to now is    10763.7 secs

     total energy              =   -1713.22250954 Ry
     Harris-Foulkes estimate   =   -1713.22250954 Ry
     estimated scf accuracy    <       0.00000005 Ry

     iteration # 23     ecut=    42.00 Ry     beta= 0.30
     Davidson diagonalization with overlap
     ethr =  5.55E-12,  avg # of iterations =  3.0

     total cpu time spent up to now is    11196.9 secs

     total energy              =   -1713.22250955 Ry
     Harris-Foulkes estimate   =   -1713.22250955 Ry
     estimated scf accuracy    <       0.00000005 Ry

     iteration # 24     ecut=    42.00 Ry     beta= 0.30
     Davidson diagonalization with overlap
     ethr =  5.27E-12,  avg # of iterations =  3.0

     total cpu time spent up to now is    11596.7 secs

     End of self-consistent calculation

          k = 0.0000 0.0000 0.0000 (135927 PWs)   bands (ev):

    -6.1164  -5.8250  -5.7227  -5.6268  -5.5312  -5.5262  -5.4612  -5.3111
    -5.2256  -5.1838  -5.1584  -5.1363  -5.0881  -5.0565  -5.0179  -5.0030
    -4.9930  -4.9304  -4.8873  -4.7286  -4.7075  -4.6454  -4.6237  -4.5821
    -4.5660  -4.5207  -4.4872  -4.4045  -4.2620  -4.2146  -4.1765  -4.1642
    -4.1131  -4.0535  -4.0279  -3.9821  -3.9442  -3.9283  -3.9034  -3.8899
    -3.8696  -3.8593  -3.8446  -3.8072  -3.8005  -3.7796  -3.7494  -3.7193
    -3.7092  -3.6683  -3.6509  -3.6104  -3.5840  -3.5672  -3.5627  -3.5323
    -3.5159  -3.5011  -3.4586  -3.4202  -3.3987  -3.3887  -3.3721  -3.3532
    -3.3072  -3.2956  -3.2678  -3.2532  -3.2236  -3.1803  -3.1634  -3.1319
    -3.1171  -3.0819  -3.0737  -3.0116  -2.9343  -2.8924  -2.8536  -2.8124
    -2.7828  -2.6333  -2.5965  -2.5791  -2.5013  -2.4788  -2.4517  -2.4303
    -2.3755  -2.3562  -2.3139  -2.2805  -2.2450  -2.2308  -2.1834  -2.1505
    -2.1287  -2.1119  -2.0885  -2.0302  -2.0067  -1.9764  -1.9515  -1.9309
    -1.9156  -1.9001  -1.8344  -1.8081  -1.7499  -1.7226  -1.6965  -1.6673
    -1.6205  -1.6062  -1.5793  -1.5553  -1.5155  -1.4398  -1.4127  -1.3603
    -1.3297  -1.3119  -1.2848  -1.2384  -1.2186  -1.1637  -1.1588  -1.1195
    -1.0904  -1.0519  -1.0178  -0.9537  -0.9318  -0.8634  -0.8415  -0.8238
    -0.7865  -0.7475  -0.7010  -0.6898  -0.6847  -0.6111  -0.5961  -0.5824
    -0.5508  -0.5026  -0.4891  -0.4462  -0.4068  -0.3873  -0.3441  -0.2863
    -0.2556  -0.2090  -0.1840  -0.1647  -0.1417  -0.0939  -0.0569  -0.0203
     0.0093   0.0388   0.0968   0.1244   0.1684   0.2107   0.2218   0.2383
     0.3090   0.3261   0.3718   0.4130   0.4657   0.5067   0.5564   0.5716
     0.6062   0.6356   0.6678   0.6846   0.7143   0.7899   0.7960   0.8084
     0.8329   0.8654   0.8949   0.9502   0.9617   0.9964   1.0110   1.1084
     1.1194   1.1344   1.1680   1.1812   1.2168   1.2319   1.2928   1.3268
     1.3533   1.3701   1.3874   1.4170   1.4875   1.5048   1.5259   1.5640
     1.5945   1.6318   1.6457   1.6638   1.6820   1.7071   1.7542   1.7633
     1.7979   1.8296   1.8487   1.8687   1.9201   1.9236   1.9556   1.9679
     2.0043   2.0241   2.0385   2.0589   2.0950   2.1048   2.1456   2.1646
     2.1902   2.2001   2.2282   2.2520   2.2870   2.2958   2.3302   2.3419
     2.3904   2.4011   2.4112   2.4313   2.4692   2.4871   2.5043   2.5205
     2.5230   2.5523   2.5824   2.6051   2.6092   2.6271   2.6414   2.6725
     2.6843   2.6924   2.7286   2.7439   2.7664   2.7741   2.7952   2.8195
     2.8314   2.8578   2.8883   2.9186   2.9259   2.9514   2.9638   2.9772
     2.9925   3.0035   3.0171   3.0450   3.0535   3.0631   3.0904   3.0975
     3.1232   3.1405   3.1583   3.1672   3.2050   3.2180   3.2265   3.2524
     3.2583   3.2721   3.2987   3.3032   3.3289   3.3422   3.3627   3.3638
     3.3826   3.4013   3.4205   3.4382   3.4467   3.4700   3.4794   3.4880
     3.5030   3.5276   3.5413   3.5528   3.5701   3.5900   3.6044   3.6165
     3.6349   3.6456   3.6546   3.6642   3.6761   3.7012   3.7151   3.7269
     3.7283   3.7492   3.7840   3.7879   3.7960   3.8066   3.8099   3.8378
     3.8495   3.8725   3.8756   3.8983   3.9024   3.9173   3.9340   3.9541
     3.9731   3.9836   3.9957   4.0095   4.0173   4.0609   4.0674   4.0745
     4.0783   4.0991   4.1058   4.1311   4.1399   4.1537   4.1765   4.1785
     4.2043   4.2110   4.2281   4.2565   4.2604   4.2748   4.2945   4.3031
     4.3129   4.3344   4.3546   4.3703   4.3818   4.4035   4.4131   4.4164
     4.4242   4.4506   4.4635   4.4789   4.4873   4.5029   4.5303   4.5480
     4.5763   4.5975   4.6101   4.6113   4.6298   4.6422   4.6560   4.6771
     4.6924   4.7070   4.7090   4.7255   4.7711   4.7853   4.7894   4.7984
     4.8064   4.8338   4.8442   4.8551   4.8869   4.8925   4.9170   4.9394
     4.9689   4.9897   5.0093   5.0214   5.0556   5.0702   5.0892   5.0951
     5.1198   5.1340   5.1566   5.1807   5.2116   5.2250   5.2524   5.2663
     5.2788   5.3062   5.3421   5.3784   5.3837   5.4057   5.4325   5.4722
     5.4868   5.5098   5.5665   5.5904   5.6247   5.6283   5.6431   5.6578
     5.6952   5.7768   5.8858   5.9905   6.1742   6.2301   6.3164   6.3791
     6.4986   6.5726   6.6856   6.7829   6.9287   6.9661   7.0477   7.0594
     7.0822   7.1183   7.1422   7.1459   7.2251   7.2339   7.2499   7.2652
     7.3494   7.3633   7.3838   7.3963   7.4186   7.4402   7.4748   7.4867
     7.5083   7.5406   7.5502   7.5730   7.5868   7.6037   7.6418   7.6904
     7.6918   7.7115   7.7208   7.7426   7.7469   7.7758   7.7815   7.8041
     7.8250   7.8496   7.8594   7.8773   7.8934   7.9214   7.9523   7.9655
     7.9798   7.9959   8.0066   8.0223   8.0305   8.0331   8.0562   8.0943
     8.1094   8.1136   8.1272   8.1407   8.1552   8.1692   8.1834   8.1928
     8.2487   8.2607   8.2687   8.2963   8.3084   8.3226   8.3322   8.3345
     8.3643   8.3697   8.4107   8.4182   8.4448   8.4491   8.4654   8.4820
     8.4959   8.5118   8.5258   8.5421   8.5458   8.5628   8.5709

     occupation numbers 
     1.0000   1.0000   1.0000   1.0000   1.0000   1.0000   1.0000   1.0000
     1.0000   1.0000   1.0000   1.0000   1.0000   1.0000   1.0000   1.0000
     1.0000   1.0000   1.0000   1.0000   1.0000   1.0000   1.0000   1.0000
     1.0000   1.0000   1.0000   1.0000   1.0000   1.0000   1.0000   1.0000
     1.0000   1.0000   1.0000   1.0000   1.0000   1.0000   1.0000   1.0000
     1.0000   1.0000   1.0000   1.0000   1.0000   1.0000   1.0000   1.0000
     1.0000   1.0000   1.0000   1.0000   1.0000   1.0000   1.0000   1.0000
     1.0000   1.0000   1.0000   1.0000   1.0000   1.0000   1.0000   1.0000
     1.0000   1.0000   1.0000   1.0000   1.0000   1.0000   1.0000   1.0000
     1.0000   1.0000   1.0000   1.0000   1.0000   1.0000   1.0000   1.0000
     1.0000   1.0000   1.0000   1.0000   1.0000   1.0000   1.0000   1.0000
     1.0000   1.0000   1.0000   1.0000   1.0000   1.0000   1.0000   1.0000
     1.0000   1.0000   1.0000   1.0000   1.0000   1.0000   1.0000   1.0000
     1.0000   1.0000   1.0000   1.0000   1.0000   1.0000   1.0000   1.0000
     1.0000   1.0000   1.0000   1.0000   1.0000   1.0000   1.0000   1.0000
     1.0000   1.0000   1.0000   1.0000   1.0000   1.0000   1.0000   1.0000
     1.0000   1.0000   1.0000   1.0000   1.0000   1.0000   1.0000   1.0000
     1.0000   1.0000   1.0000   1.0000   1.0000   1.0000   1.0000   1.0000
     1.0000   1.0000   1.0000   1.0000   1.0000   1.0000   1.0000   1.0000
     1.0000   1.0000   1.0000   1.0000   1.0000   1.0000   1.0000   1.0000
     1.0000   1.0000   1.0000   1.0000   1.0000   1.0000   1.0000   1.0000
     1.0000   1.0000   1.0000   1.0000   1.0000   1.0000   1.0000   1.0000
     1.0000   1.0000   1.0000   1.0000   1.0000   1.0000   1.0000   1.0000
     1.0000   1.0000   1.0000   1.0000   1.0000   1.0000   1.0000   1.0000
     1.0000   1.0000   1.0000   1.0000   1.0000   1.0000   1.0000   1.0000
     1.0000   1.0000   1.0000   1.0000   1.0000   1.0000   1.0000   1.0000
     1.0000   1.0000   1.0000   1.0000   1.0000   1.0000   1.0000   1.0000
     1.0000   1.0000   1.0000   1.0000   1.0000   1.0000   1.0000   1.0000
     1.0000   1.0000   1.0000   1.0000   1.0000   1.0000   1.0000   1.0000
     1.0000   1.0000   1.0000   1.0000   1.0000   1.0000   1.0000   1.0000
     1.0000   1.0000   1.0000   1.0000   1.0000   1.0000   1.0000   1.0000
     1.0000   1.0000   1.0000   1.0000   1.0000   1.0000   1.0000   1.0000
     1.0000   1.0000   1.0000   1.0000   1.0000   1.0000   1.0000   1.0000
     1.0000   1.0000   1.0000   1.0000   1.0000   1.0000   1.0000   1.0000
     1.0000   1.0000   1.0000   1.0000   1.0000   1.0000   1.0000   1.0000
     1.0000   1.0000   1.0000   1.0000   1.0000   1.0000   1.0000   1.0000
     1.0000   1.0000   1.0000   1.0000   1.0000   1.0000   1.0000   1.0000
     1.0000   1.0000   1.0000   1.0000   1.0000   1.0000   1.0000   1.0000
     1.0000   1.0000   1.0000   1.0000   1.0000   1.0000   1.0001   1.0001
     1.0001   1.0001   1.0001   1.0001   1.0001   1.0001   1.0001   1.0001
     1.0001   1.0002   1.0002   1.0002   1.0002   1.0003   1.0003   1.0003
     1.0004   1.0004   1.0004   1.0005   1.0005   1.0006   1.0007   1.0008
     1.0009   1.0009   1.0010   1.0011   1.0012   1.0016   1.0016   1.0017
     1.0017   1.0020   1.0021   1.0024   1.0026   1.0028   1.0032   1.0032
     1.0038   1.0039   1.0043   1.0051   1.0052   1.0056   1.0063   1.0065
     1.0069   1.0077   1.0086   1.0093   1.0098   1.0109   1.0115   1.0116
     1.0121   1.0137   1.0145   1.0156   1.0161   1.0173   1.0195   1.0210
     1.0235   1.0256   1.0268   1.0270   1.0289   1.0302   1.0318   1.0342
     1.0361   1.0379   1.0381   1.0402   1.0462   1.0481   1.0486   1.0499
     1.0510   1.0548   1.0562   1.0577   1.0621   1.0628   1.0661   1.0689
     1.0725   1.0748   1.0767   1.0779   1.0806   1.0815   1.0824   1.0826
     1.0832   1.0833   1.0830   1.0820   1.0797   1.0782   1.0745   1.0722
     1.0698   1.0638   1.0538   1.0414   1.0394   1.0304   1.0182   0.9975
     0.9891   0.9750   0.9358   0.9174   0.8893   0.8863   0.8735   0.8603
     0.8256   0.7435   0.6253   0.5098   0.3239   0.2752   0.2090   0.1680
     0.1062   0.0777   0.0462   0.0283   0.0126   0.0101   0.0061   0.0057
     0.0049   0.0039   0.0033   0.0032   0.0019   0.0017   0.0016   0.0014
     0.0007   0.0007   0.0006   0.0005   0.0004   0.0004   0.0003   0.0003
     0.0002   0.0002   0.0001   0.0001   0.0001   0.0001   0.0001   0.0000
     0.0000   0.0000   0.0000   0.0000   0.0000   0.0000   0.0000   0.0000
     0.0000   0.0000   0.0000   0.0000   0.0000   0.0000   0.0000   0.0000
     0.0000   0.0000   0.0000   0.0000   0.0000   0.0000   0.0000   0.0000
     0.0000   0.0000   0.0000   0.0000   0.0000   0.0000   0.0000   0.0000
     0.0000   0.0000   0.0000   0.0000   0.0000   0.0000   0.0000   0.0000
     0.0000   0.0000   0.0000   0.0000   0.0000   0.0000   0.0000   0.0000
     0.0000   0.0000   0.0000   0.0000   0.0000   0.0000   0.0000

          k = 0.0000 0.0000-0.5021 (135932 PWs)   bands (ev):

    -6.0557  -5.9565  -5.7051  -5.5645  -5.5148  -5.4841  -5.4405  -5.3833
    -5.3668  -5.3212  -5.1377  -5.1155  -5.0556  -5.0211  -4.9642  -4.9493
    -4.8934  -4.8518  -4.8076  -4.7997  -4.7081  -4.6463  -4.5385  -4.5327
    -4.4828  -4.4541  -4.4260  -4.3861  -4.3084  -4.2441  -4.2199  -4.1769
    -4.1581  -4.1453  -4.1335  -4.1131  -4.0851  -4.0511  -4.0123  -3.9922
    -3.9750  -3.9598  -3.9001  -3.8460  -3.8236  -3.7890  -3.7592  -3.7475
    -3.7028  -3.6720  -3.6482  -3.6244  -3.6011  -3.5526  -3.5423  -3.5097
    -3.4957  -3.4577  -3.4044  -3.3879  -3.3422  -3.3378  -3.2910  -3.2707
    -3.2152  -3.1992  -3.1780  -3.1469  -3.1309  -3.0961  -3.0708  -3.0484
    -2.9983  -2.9937  -2.9573  -2.8862  -2.8510  -2.8178  -2.8019  -2.7853
    -2.7444  -2.6962  -2.6680  -2.6297  -2.6277  -2.5713  -2.5663  -2.5026
    -2.4486  -2.4152  -2.3975  -2.3791  -2.3598  -2.3085  -2.2937  -2.2345
    -2.1896  -2.1298  -2.0908  -2.0613  -2.0052  -1.9947  -1.9857  -1.9706
    -1.9298  -1.8637  -1.8063  -1.7768  -1.7393  -1.7076  -1.6677  -1.6390
    -1.5908  -1.5734  -1.5363  -1.5292  -1.4935  -1.4373  -1.4184  -1.3516
    -1.3120  -1.2908  -1.2469  -1.2154  -1.2092  -1.1896  -1.1630  -1.1240
    -1.0975  -1.0638  -1.0073  -0.9642  -0.9466  -0.8780  -0.8633  -0.8427
    -0.8027  -0.7568  -0.7339  -0.7139  -0.6770  -0.6489  -0.6201  -0.5656
    -0.5366  -0.5184  -0.4667  -0.4240  -0.3907  -0.3838  -0.3440  -0.2822
    -0.2738  -0.2310  -0.1718  -0.1258  -0.1024  -0.0632  -0.0251   0.0066
     0.0162   0.0682   0.1033   0.1532   0.1677   0.2298   0.2631   0.2944
     0.3417   0.3490   0.3820   0.3902   0.4388   0.4474   0.4814   0.5681
     0.5942   0.5993   0.6465   0.6783   0.7198   0.7617   0.8085   0.8448
     0.8636   0.8762   0.9041   0.9379   0.9610   0.9904   1.0336   1.0829
     1.1300   1.1524   1.1578   1.2108   1.2336   1.2727   1.3052   1.3150
     1.3738   1.3977   1.4308   1.4639   1.4893   1.5001   1.5323   1.5575
     1.5991   1.6346   1.6570   1.7032   1.7119   1.7464   1.7604   1.7917
     1.8266   1.8418   1.8696   1.9034   1.9134   1.9417   1.9499   1.9730
     1.9982   2.0173   2.0409   2.0695   2.0902   2.1098   2.1414   2.1532
     2.1766   2.2041   2.2287   2.2544   2.2715   2.3082   2.3176   2.3231
     2.3344   2.3772   2.4015   2.4291   2.4523   2.4677   2.4921   2.5024
     2.5367   2.5572   2.5716   2.5863   2.5944   2.6070   2.6365   2.6406
     2.6660   2.6721   2.6962   2.7382   2.7429   2.7621   2.7862   2.8068
     2.8294   2.8384   2.8556   2.8738   2.9005   2.9126   2.9399   2.9580
     2.9646   2.9878   2.9995   3.0137   3.0395   3.0513   3.0628   3.1119
     3.1192   3.1279   3.1382   3.1501   3.1634   3.1850   3.2064   3.2278
     3.2327   3.2518   3.2796   3.2908   3.3050   3.3122   3.3190   3.3368
     3.3682   3.3770   3.3851   3.4057   3.4385   3.4410   3.4544   3.4597
     3.4761   3.4829   3.5017   3.5204   3.5392   3.5619   3.5729   3.5981
     3.6105   3.6436   3.6473   3.6518   3.6680   3.6780   3.6991   3.7121
     3.7423   3.7517   3.7773   3.7780   3.7936   3.8371   3.8447   3.8574
     3.8620   3.8784   3.8871   3.9056   3.9237   3.9318   3.9504   3.9659
     3.9694   3.9980   4.0280   4.0383   4.0572   4.0704   4.0779   4.0965
     4.1265   4.1287   4.1420   4.1536   4.1737   4.1763   4.1933   4.2068
     4.2148   4.2294   4.2367   4.2611   4.2746   4.2971   4.3210   4.3291
     4.3523   4.3665   4.3868   4.3983   4.4111   4.4269   4.4423   4.4493
     4.4590   4.4806   4.4892   4.4974   4.5110   4.5276   4.5500   4.5667
     4.5759   4.5931   4.6023   4.6386   4.6433   4.6729   4.6825   4.6896
     4.7093   4.7186   4.7314   4.7635   4.7679   4.7872   4.7984   4.8097
     4.8216   4.8641   4.8708   4.8782   4.8828   4.9225   4.9355   4.9719
     4.9878   5.0009   5.0262   5.0334   5.0449   5.0692   5.0776   5.1152
     5.1566   5.1681   5.1915   5.2158   5.2334   5.2425   5.2473   5.2644
     5.3105   5.3271   5.3378   5.3473   5.3694   5.4004   5.4335   5.4720
     5.4794   5.5225   5.5536   5.5829   5.6017   5.6058   5.6276   5.6552
     5.7178   5.7665   5.8460   6.0252   6.1567   6.2060   6.2933   6.4039
     6.4396   6.5323   6.7378   6.7953   6.9101   6.9634   7.0283   7.0707
     7.0947   7.1263   7.1332   7.1972   7.2066   7.2298   7.2459   7.2856
     7.3070   7.3315   7.3784   7.3930   7.4167   7.4393   7.4679   7.4888
     7.5192   7.5340   7.5533   7.5829   7.5996   7.6086   7.6326   7.6712
     7.6874   7.6937   7.7085   7.7359   7.7677   7.7805   7.7844   7.7965
     7.8123   7.8249   7.8392   7.8526   7.8797   7.8824   7.9095   7.9354
     7.9508   7.9992   8.0028   8.0177   8.0292   8.0413   8.0563   8.0700
     8.0877   8.1039   8.1045   8.1267   8.1489   8.1555   8.1751   8.1948
     8.1984   8.2265   8.2482   8.2505   8.2786   8.2856   8.3025   8.3208
     8.3311   8.3538   8.3667   8.3836   8.3952   8.4115   8.4155   8.4365
     8.4467   8.4688   8.4702   8.4790   8.5090   8.5172   8.5372

     occupation numbers 
     1.0000   1.0000   1.0000   1.0000   1.0000   1.0000   1.0000   1.0000
     1.0000   1.0000   1.0000   1.0000   1.0000   1.0000   1.0000   1.0000
     1.0000   1.0000   1.0000   1.0000   1.0000   1.0000   1.0000   1.0000
     1.0000   1.0000   1.0000   1.0000   1.0000   1.0000   1.0000   1.0000
     1.0000   1.0000   1.0000   1.0000   1.0000   1.0000   1.0000   1.0000
     1.0000   1.0000   1.0000   1.0000   1.0000   1.0000   1.0000   1.0000
     1.0000   1.0000   1.0000   1.0000   1.0000   1.0000   1.0000   1.0000
     1.0000   1.0000   1.0000   1.0000   1.0000   1.0000   1.0000   1.0000
     1.0000   1.0000   1.0000   1.0000   1.0000   1.0000   1.0000   1.0000
     1.0000   1.0000   1.0000   1.0000   1.0000   1.0000   1.0000   1.0000
     1.0000   1.0000   1.0000   1.0000   1.0000   1.0000   1.0000   1.0000
     1.0000   1.0000   1.0000   1.0000   1.0000   1.0000   1.0000   1.0000
     1.0000   1.0000   1.0000   1.0000   1.0000   1.0000   1.0000   1.0000
     1.0000   1.0000   1.0000   1.0000   1.0000   1.0000   1.0000   1.0000
     1.0000   1.0000   1.0000   1.0000   1.0000   1.0000   1.0000   1.0000
     1.0000   1.0000   1.0000   1.0000   1.0000   1.0000   1.0000   1.0000
     1.0000   1.0000   1.0000   1.0000   1.0000   1.0000   1.0000   1.0000
     1.0000   1.0000   1.0000   1.0000   1.0000   1.0000   1.0000   1.0000
     1.0000   1.0000   1.0000   1.0000   1.0000   1.0000   1.0000   1.0000
     1.0000   1.0000   1.0000   1.0000   1.0000   1.0000   1.0000   1.0000
     1.0000   1.0000   1.0000   1.0000   1.0000   1.0000   1.0000   1.0000
     1.0000   1.0000   1.0000   1.0000   1.0000   1.0000   1.0000   1.0000
     1.0000   1.0000   1.0000   1.0000   1.0000   1.0000   1.0000   1.0000
     1.0000   1.0000   1.0000   1.0000   1.0000   1.0000   1.0000   1.0000
     1.0000   1.0000   1.0000   1.0000   1.0000   1.0000   1.0000   1.0000
     1.0000   1.0000   1.0000   1.0000   1.0000   1.0000   1.0000   1.0000
     1.0000   1.0000   1.0000   1.0000   1.0000   1.0000   1.0000   1.0000
     1.0000   1.0000   1.0000   1.0000   1.0000   1.0000   1.0000   1.0000
     1.0000   1.0000   1.0000   1.0000   1.0000   1.0000   1.0000   1.0000
     1.0000   1.0000   1.0000   1.0000   1.0000   1.0000   1.0000   1.0000
     1.0000   1.0000   1.0000   1.0000   1.0000   1.0000   1.0000   1.0000
     1.0000   1.0000   1.0000   1.0000   1.0000   1.0000   1.0000   1.0000
     1.0000   1.0000   1.0000   1.0000   1.0000   1.0000   1.0000   1.0000
     1.0000   1.0000   1.0000   1.0000   1.0000   1.0000   1.0000   1.0000
     1.0000   1.0000   1.0000   1.0000   1.0000   1.0000   1.0000   1.0000
     1.0000   1.0000   1.0000   1.0000   1.0000   1.0000   1.0000   1.0000
     1.0000   1.0000   1.0000   1.0000   1.0000   1.0000   1.0000   1.0000
     1.0000   1.0000   1.0000   1.0000   1.0000   1.0000   1.0000   1.0000
     1.0000   1.0000   1.0000   1.0000   1.0000   1.0000   1.0000   1.0000
     1.0001   1.0001   1.0001   1.0001   1.0001   1.0001   1.0001   1.0001
     1.0002   1.0002   1.0002   1.0002   1.0002   1.0003   1.0003   1.0004
     1.0004   1.0004   1.0005   1.0005   1.0006   1.0006   1.0007   1.0008
     1.0008   1.0010   1.0013   1.0013   1.0015   1.0017   1.0017   1.0020
     1.0024   1.0024   1.0026   1.0028   1.0031   1.0032   1.0035   1.0038
     1.0040   1.0044   1.0045   1.0052   1.0056   1.0063   1.0072   1.0075
     1.0085   1.0091   1.0101   1.0107   1.0113   1.0122   1.0132   1.0136
     1.0142   1.0157   1.0163   1.0169   1.0179   1.0192   1.0211   1.0226
     1.0235   1.0251   1.0260   1.0298   1.0304   1.0337   1.0349   1.0357
     1.0381   1.0393   1.0409   1.0452   1.0457   1.0483   1.0499   1.0514
     1.0531   1.0589   1.0599   1.0609   1.0615   1.0668   1.0684   1.0728
     1.0746   1.0759   1.0783   1.0789   1.0798   1.0814   1.0819   1.0832
     1.0830   1.0826   1.0813   1.0792   1.0772   1.0760   1.0753   1.0725
     1.0627   1.0583   1.0552   1.0522   1.0448   1.0327   1.0177   0.9976
     0.9934   0.9667   0.9452   0.9233   0.9084   0.9051   0.8869   0.8627
     0.8036   0.7542   0.6691   0.4724   0.3401   0.2956   0.2256   0.1535
     0.1341   0.0924   0.0356   0.0265   0.0140   0.0103   0.0069   0.0053
     0.0045   0.0037   0.0035   0.0023   0.0021   0.0018   0.0016   0.0012
     0.0010   0.0009   0.0006   0.0005   0.0004   0.0004   0.0003   0.0002
     0.0002   0.0002   0.0001   0.0001   0.0001   0.0001   0.0001   0.0001
     0.0000   0.0000   0.0000   0.0000   0.0000   0.0000   0.0000   0.0000
     0.0000   0.0000   0.0000   0.0000   0.0000   0.0000   0.0000   0.0000
     0.0000   0.0000   0.0000   0.0000   0.0000   0.0000   0.0000   0.0000
     0.0000   0.0000   0.0000   0.0000   0.0000   0.0000   0.0000   0.0000
     0.0000   0.0000   0.0000   0.0000   0.0000   0.0000   0.0000   0.0000
     0.0000   0.0000   0.0000   0.0000   0.0000   0.0000   0.0000   0.0000
     0.0000   0.0000   0.0000   0.0000   0.0000   0.0000   0.0000

          k = 0.0000-0.4955 0.0101 (135898 PWs)   bands (ev):

    -6.0776  -5.9089  -5.7100  -5.6497  -5.5068  -5.4684  -5.4021  -5.3600
    -5.3578  -5.3464  -5.1198  -5.0807  -5.0268  -4.9949  -4.9804  -4.9599
    -4.8968  -4.8891  -4.8626  -4.8296  -4.6491  -4.6158  -4.5938  -4.5470
    -4.5307  -4.4769  -4.4499  -4.3926  -4.3027  -4.2540  -4.2152  -4.2038
    -4.1654  -4.1174  -4.1088  -4.0604  -4.0546  -4.0328  -4.0212  -3.9553
    -3.9404  -3.9289  -3.8910  -3.8619  -3.8225  -3.8170  -3.7893  -3.7477
    -3.7085  -3.6706  -3.6307  -3.6202  -3.6114  -3.5759  -3.5452  -3.5015
    -3.4954  -3.4294  -3.4169  -3.3762  -3.3423  -3.3148  -3.2929  -3.2798
    -3.2654  -3.2214  -3.2062  -3.1551  -3.1086  -3.0699  -3.0343  -3.0249
    -2.9859  -2.9622  -2.9016  -2.8872  -2.8412  -2.8197  -2.7741  -2.7645
    -2.7483  -2.7111  -2.6981  -2.6588  -2.6036  -2.5833  -2.5558  -2.5452
    -2.4994  -2.4666  -2.3992  -2.3811  -2.3475  -2.3368  -2.3011  -2.2476
    -2.2113  -2.1714  -2.1481  -2.0955  -2.0884  -2.0696  -1.9901  -1.9176
    -1.8621  -1.8574  -1.7994  -1.7780  -1.7219  -1.6998  -1.6523  -1.6135
    -1.5978  -1.5707  -1.5257  -1.5027  -1.4854  -1.4345  -1.4251  -1.3784
    -1.3597  -1.3374  -1.2850  -1.2120  -1.1861  -1.1703  -1.1116  -1.0835
    -1.0569  -1.0198  -0.9774  -0.9552  -0.9457  -0.8583  -0.8382  -0.7951
    -0.7662  -0.7428  -0.7053  -0.6567  -0.6526  -0.6138  -0.5803  -0.5683
    -0.5385  -0.5054  -0.4946  -0.4582  -0.4077  -0.3421  -0.3039  -0.2581
    -0.2289  -0.2096  -0.1711  -0.1578  -0.1243  -0.1067  -0.0686  -0.0461
     0.0032   0.0332   0.0775   0.0944   0.1456   0.1792   0.1978   0.2771
     0.3208   0.3553   0.3696   0.3913   0.4430   0.4847   0.5218   0.5366
     0.6082   0.6231   0.6711   0.6829   0.7169   0.7519   0.7796   0.8555
     0.8811   0.9171   0.9225   0.9419   0.9739   0.9858   1.0412   1.0536
     1.0998   1.1453   1.1683   1.1938   1.2154   1.2365   1.2949   1.3145
     1.3166   1.3411   1.3589   1.4346   1.4413   1.5263   1.5494   1.5787
     1.5859   1.6045   1.6454   1.6627   1.6951   1.7182   1.7480   1.7659
     1.7991   1.8302   1.8576   1.8903   1.9172   1.9511   1.9743   1.9998
     2.0197   2.0378   2.0789   2.1005   2.1128   2.1333   2.1546   2.1871
     2.1994   2.2280   2.2443   2.2676   2.3086   2.3143   2.3357   2.3633
     2.3690   2.3922   2.4034   2.4315   2.4451   2.4510   2.4633   2.5038
     2.5157   2.5402   2.5484   2.5750   2.5962   2.6208   2.6392   2.6599
     2.6611   2.6979   2.7076   2.7307   2.7588   2.7679   2.7751   2.7927
     2.8165   2.8379   2.8561   2.8841   2.9169   2.9376   2.9515   2.9614
     2.9725   2.9937   3.0179   3.0211   3.0341   3.0516   3.0667   3.0863
     3.0954   3.1060   3.1456   3.1489   3.1686   3.1825   3.1995   3.2179
     3.2351   3.2444   3.2592   3.2812   3.2880   3.3047   3.3325   3.3519
     3.3809   3.3971   3.4064   3.4276   3.4349   3.4648   3.4794   3.4932
     3.4977   3.5042   3.5210   3.5501   3.5662   3.5702   3.5947   3.6173
     3.6338   3.6508   3.6619   3.6739   3.7007   3.7067   3.7196   3.7225
     3.7507   3.7595   3.7697   3.7862   3.8051   3.8109   3.8250   3.8383
     3.8781   3.8941   3.9022   3.9164   3.9202   3.9477   3.9599   3.9853
     3.9881   4.0049   4.0168   4.0363   4.0566   4.0624   4.0775   4.0916
     4.0973   4.1048   4.1269   4.1474   4.1714   4.1812   4.1848   4.2009
     4.2224   4.2294   4.2453   4.2609   4.2673   4.2773   4.2954   4.3165
     4.3311   4.3695   4.3755   4.4010   4.4096   4.4293   4.4346   4.4378
     4.4619   4.4789   4.4882   4.4986   4.5106   4.5270   4.5502   4.5596
     4.5727   4.5889   4.6108   4.6198   4.6371   4.6572   4.6597   4.6864
     4.7107   4.7146   4.7328   4.7425   4.7656   4.7759   4.7939   4.8202
     4.8388   4.8409   4.8653   4.8715   4.8900   4.8969   4.9365   4.9542
     4.9607   4.9955   5.0134   5.0258   5.0623   5.0776   5.0939   5.1063
     5.1300   5.1395   5.1480   5.1586   5.1951   5.2023   5.2456   5.2458
     5.2680   5.3033   5.3271   5.3360   5.3402   5.4002   5.4224   5.4418
     5.4844   5.5063   5.5363   5.5547   5.5924   5.6069   5.6636   5.6906
     5.7346   5.7997   5.8823   5.9729   6.1905   6.2072   6.3181   6.4010
     6.4764   6.5434   6.7007   6.7917   6.9368   6.9734   7.0194   7.0644
     7.0879   7.1280   7.1734   7.1774   7.1824   7.2334   7.2630   7.2899
     7.3079   7.3274   7.3536   7.3712   7.4053   7.4189   7.4538   7.4769
     7.4948   7.5169   7.5410   7.5600   7.5657   7.5943   7.6378   7.6534
     7.6713   7.6924   7.7109   7.7200   7.7405   7.7569   7.7983   7.8015
     7.8275   7.8311   7.8353   7.8560   7.8732   7.9017   7.9321   7.9457
     7.9523   7.9890   7.9936   8.0022   8.0139   8.0195   8.0474   8.0574
     8.0907   8.0969   8.1061   8.1285   8.1766   8.1843   8.1907   8.2126
     8.2252   8.2430   8.2447   8.2677   8.2928   8.3170   8.3207   8.3405
     8.3484   8.3683   8.3759   8.3884   8.4086   8.4259   8.4411   8.4518
     8.4791   8.4985   8.5092   8.5202   8.5348   8.5538   8.5664

     occupation numbers 
     1.0000   1.0000   1.0000   1.0000   1.0000   1.0000   1.0000   1.0000
     1.0000   1.0000   1.0000   1.0000   1.0000   1.0000   1.0000   1.0000
     1.0000   1.0000   1.0000   1.0000   1.0000   1.0000   1.0000   1.0000
     1.0000   1.0000   1.0000   1.0000   1.0000   1.0000   1.0000   1.0000
     1.0000   1.0000   1.0000   1.0000   1.0000   1.0000   1.0000   1.0000
     1.0000   1.0000   1.0000   1.0000   1.0000   1.0000   1.0000   1.0000
     1.0000   1.0000   1.0000   1.0000   1.0000   1.0000   1.0000   1.0000
     1.0000   1.0000   1.0000   1.0000   1.0000   1.0000   1.0000   1.0000
     1.0000   1.0000   1.0000   1.0000   1.0000   1.0000   1.0000   1.0000
     1.0000   1.0000   1.0000   1.0000   1.0000   1.0000   1.0000   1.0000
     1.0000   1.0000   1.0000   1.0000   1.0000   1.0000   1.0000   1.0000
     1.0000   1.0000   1.0000   1.0000   1.0000   1.0000   1.0000   1.0000
     1.0000   1.0000   1.0000   1.0000   1.0000   1.0000   1.0000   1.0000
     1.0000   1.0000   1.0000   1.0000   1.0000   1.0000   1.0000   1.0000
     1.0000   1.0000   1.0000   1.0000   1.0000   1.0000   1.0000   1.0000
     1.0000   1.0000   1.0000   1.0000   1.0000   1.0000   1.0000   1.0000
     1.0000   1.0000   1.0000   1.0000   1.0000   1.0000   1.0000   1.0000
     1.0000   1.0000   1.0000   1.0000   1.0000   1.0000   1.0000   1.0000
     1.0000   1.0000   1.0000   1.0000   1.0000   1.0000   1.0000   1.0000
     1.0000   1.0000   1.0000   1.0000   1.0000   1.0000   1.0000   1.0000
     1.0000   1.0000   1.0000   1.0000   1.0000   1.0000   1.0000   1.0000
     1.0000   1.0000   1.0000   1.0000   1.0000   1.0000   1.0000   1.0000
     1.0000   1.0000   1.0000   1.0000   1.0000   1.0000   1.0000   1.0000
     1.0000   1.0000   1.0000   1.0000   1.0000   1.0000   1.0000   1.0000
     1.0000   1.0000   1.0000   1.0000   1.0000   1.0000   1.0000   1.0000
     1.0000   1.0000   1.0000   1.0000   1.0000   1.0000   1.0000   1.0000
     1.0000   1.0000   1.0000   1.0000   1.0000   1.0000   1.0000   1.0000
     1.0000   1.0000   1.0000   1.0000   1.0000   1.0000   1.0000   1.0000
     1.0000   1.0000   1.0000   1.0000   1.0000   1.0000   1.0000   1.0000
     1.0000   1.0000   1.0000   1.0000   1.0000   1.0000   1.0000   1.0000
     1.0000   1.0000   1.0000   1.0000   1.0000   1.0000   1.0000   1.0000
     1.0000   1.0000   1.0000   1.0000   1.0000   1.0000   1.0000   1.0000
     1.0000   1.0000   1.0000   1.0000   1.0000   1.0000   1.0000   1.0000
     1.0000   1.0000   1.0000   1.0000   1.0000   1.0000   1.0000   1.0000
     1.0000   1.0000   1.0000   1.0000   1.0000   1.0000   1.0000   1.0000
     1.0000   1.0000   1.0000   1.0000   1.0000   1.0000   1.0000   1.0000
     1.0000   1.0000   1.0000   1.0000   1.0000   1.0000   1.0000   1.0000
     1.0000   1.0000   1.0000   1.0000   1.0000   1.0000   1.0000   1.0000
     1.0000   1.0000   1.0000   1.0000   1.0000   1.0000   1.0000   1.0001
     1.0001   1.0001   1.0001   1.0001   1.0001   1.0001   1.0001   1.0001
     1.0002   1.0002   1.0002   1.0002   1.0003   1.0003   1.0003   1.0003
     1.0004   1.0005   1.0005   1.0006   1.0006   1.0007   1.0008   1.0009
     1.0010   1.0011   1.0012   1.0013   1.0015   1.0016   1.0017   1.0019
     1.0020   1.0021   1.0024   1.0027   1.0031   1.0033   1.0034   1.0037
     1.0042   1.0044   1.0048   1.0052   1.0054   1.0057   1.0063   1.0070
     1.0076   1.0092   1.0095   1.0108   1.0113   1.0124   1.0127   1.0129
     1.0144   1.0156   1.0162   1.0170   1.0179   1.0192   1.0212   1.0220
     1.0232   1.0247   1.0269   1.0278   1.0297   1.0319   1.0322   1.0353
     1.0383   1.0388   1.0411   1.0424   1.0454   1.0468   1.0493   1.0529
     1.0554   1.0557   1.0591   1.0600   1.0625   1.0634   1.0686   1.0707
     1.0715   1.0754   1.0771   1.0783   1.0810   1.0819   1.0826   1.0830
     1.0833   1.0833   1.0832   1.0829   1.0811   1.0805   1.0756   1.0755
     1.0719   1.0645   1.0583   1.0557   1.0545   1.0328   1.0230   1.0136
     0.9905   0.9772   0.9574   0.9445   0.9159   0.9042   0.8551   0.8300
[...]
     atom   37 type  1   force =    -0.00000034    0.00001386   -0.00001513
     atom   38 type  1   force =    -0.00000333    0.00000330    0.00000971
     atom   39 type  1   force =     0.00000163   -0.00000160    0.00000534
     atom   40 type  1   force =    -0.00000301   -0.00000158    0.00000962
     atom   41 type  1   force =    -0.00000092    0.00000090   -0.00001398
     atom   42 type  1   force =     0.00000595   -0.00000876   -0.00000338
     atom   43 type  1   force =    -0.00000500   -0.00001179    0.00000485
     atom   44 type  1   force =     0.00000127    0.00000104   -0.00001142
     atom   45 type  1   force =     0.00000104    0.00000412    0.00000013
     atom   46 type  1   force =    -0.00000267    0.00000866    0.00001072
     atom   47 type  1   force =    -0.00000056   -0.00000964    0.00000834
     atom   48 type  1   force =     0.00000047   -0.00000291   -0.00000793
     atom   49 type  1   force =    -0.00000658   -0.00000337    0.00000612
     atom   50 type  1   force =     0.00000324    0.00000294   -0.00000878
     atom   51 type  1   force =    -0.00000553    0.00000650    0.00001214
     atom   52 type  1   force =    -0.00000226    0.00000751    0.00000698
     atom   53 type  1   force =    -0.00000356    0.00000010   -0.00000645
     atom   54 type  1   force =    -0.00000464    0.00001123    0.00001006
     atom   55 type  1   force =    -0.00000104   -0.00000468   -0.00001196
     atom   56 type  1   force =     0.00000173    0.00000242    0.00000280
     atom   57 type  1   force =     0.00000336    0.00000335   -0.00001180
     atom   58 type  1   force =     0.00000069    0.00000447   -0.00000658
     atom   59 type  1   force =    -0.00000251   -0.00000109   -0.00000803
     atom   60 type  1   force =    -0.00000436    0.00000637    0.00001158
     atom   61 type  1   force =     0.00000006    0.00000855    0.00000110
     atom   62 type  1   force =    -0.00000266    0.00000878   -0.00000413
     atom   63 type  1   force =     0.00000163    0.00000264   -0.00000221
     atom   64 type  1   force =    -0.00000165    0.00000400    0.00001572
     atom   65 type  1   force =     0.00000007    0.00000081    0.00000369
     atom   66 type  1   force =     0.00000144    0.00000665    0.00001289
     atom   67 type  1   force =    -0.00000549   -0.00000137    0.00001166
     atom   68 type  1   force =    -0.00000041    0.00000816   -0.00001228
     atom   69 type  1   force =     0.00000313    0.00000595   -0.00001754
     atom   70 type  1   force =     0.00000167   -0.00000722    0.00000786
     atom   71 type  1   force =    -0.00000446   -0.00000354    0.00001145
     atom   72 type  1   force =    -0.00000452    0.00000299   -0.00002461
     atom   73 type  1   force =     0.00000753    0.00000323   -0.00000502
     atom   74 type  1   force =    -0.00000186    0.00000250   -0.00001080
     atom   75 type  1   force =     0.00000803   -0.00000915    0.00000159
     atom   76 type  1   force =     0.00000362   -0.00000281   -0.00000001
     atom   77 type  1   force =     0.00000102    0.00000275   -0.00000750
     atom   78 type  1   force =    -0.00000133    0.00000131    0.00001231
     atom   79 type  1   force =     0.00000078   -0.00000332   -0.00001181
     atom   80 type  1   force =    -0.00000078   -0.00000089   -0.00001253
     atom   81 type  1   force =     0.00000431    0.00000075   -0.00001046
     atom   82 type  1   force =    -0.00000578   -0.00000105    0.00000561
     atom   83 type  1   force =     0.00000054    0.00000415    0.00000776
     atom   84 type  1   force =     0.00000217   -0.00000393   -0.00001532
     atom   85 type  1   force =     0.00000339    0.00001273   -0.00001941
     atom   86 type  1   force =    -0.00000570   -0.00000798   -0.00001806
     atom   87 type  1   force =     0.00000678   -0.00001197    0.00000674
     atom   88 type  1   force =     0.00000440   -0.00000616    0.00001715
     atom   89 type  1   force =     0.00000457   -0.00000490    0.00001091
     atom   90 type  1   force =    -0.00000440   -0.00002002   -0.00000628
     atom   91 type  1   force =     0.00000087    0.00000351    0.00000853
     atom   92 type  1   force =     0.00000221   -0.00000481    0.00000611
     atom   93 type  1   force =    -0.00000010    0.00000104    0.00001712
     atom   94 type  1   force =     0.00000343   -0.00000664    0.00000776
     atom   95 type  1   force =     0.00000303    0.00000937    0.00000211
     atom   96 type  1   force =    -0.00000333    0.00000201    0.00001077
     atom   97 type  1   force =    -0.00000062    0.00000105   -0.00001157
     atom   98 type  1   force =     0.00000620   -0.00000286   -0.00001013
     atom   99 type  1   force =     0.00000063    0.00001282   -0.00001115
     atom  100 type  1   force =     0.00000535   -0.00000242   -0.00000040
     atom  101 type  1   force =    -0.00000737   -0.00000056    0.00000796
     atom  102 type  1   force =     0.00000302   -0.00001197    0.00000631
     atom  103 type  1   force =    -0.00000005   -0.00000264   -0.00000948
     atom  104 type  1   force =    -0.00001169   -0.00000172   -0.00000568
     atom  105 type  1   force =     0.00000881   -0.00001213   -0.00001114
     atom  106 type  1   force =     0.00000310   -0.00000234   -0.00000126
     atom  107 type  1   force =     0.00000616   -0.00000309    0.00000574
     atom  108 type  1   force =     0.00000478   -0.00000336   -0.00000150
     atom  109 type  1   force =     0.00000618    0.00001156   -0.00000417
     atom  110 type  1   force =     0.00000491    0.00000375    0.00000231
     atom  111 type  1   force =     0.00000012    0.00000175    0.00000962
     atom  112 type  1   force =     0.00000334   -0.00000573   -0.00001219
     atom  113 type  1   force =     0.00000124    0.00000219    0.00000450
     atom  114 type  1   force =    -0.00000348   -0.00000601    0.00000755
     atom  115 type  1   force =    -0.00000888    0.00000108   -0.00001247
     atom  116 type  1   force =     0.00000282   -0.00001016    0.00001598
     atom  117 type  1   force =     0.00000433    0.00000494    0.00000757
     atom  118 type  1   force =     0.00000839   -0.00001227    0.00001021
     atom  119 type  1   force =    -0.00000117   -0.00000303   -0.00000044
     atom  120 type  1   force =     0.00000932   -0.00001051    0.00001025
     atom  121 type  1   force =    -0.00000191   -0.00000560   -0.00000149
     atom  122 type  1   force =     0.00000259    0.00000108   -0.00000111
     atom  123 type  1   force =    -0.00000546    0.00000056   -0.00000163
     atom  124 type  1   force =     0.00000008   -0.00000211   -0.00000432
     atom  125 type  1   force =    -0.00000115   -0.00000767   -0.00001447
     atom  126 type  1   force =    -0.00000141   -0.00000257    0.00000613
     atom  127 type  1   force =    -0.00000247   -0.00000859    0.00001255
     atom  128 type  1   force =     0.00000783    0.00000752    0.00001206
     atom  129 type  1   force =     0.00000126   -0.00000239   -0.00001330
     atom  130 type  1   force =    -0.00000133   -0.00000157    0.00001222
     atom  131 type  1   force =    -0.00000112   -0.00000102   -0.00000671
     atom  132 type  1   force =    -0.00000480    0.00000822    0.00001233
     atom  133 type  1   force =    -0.00000210    0.00000105   -0.00000396
     atom  134 type  1   force =    -0.00000703   -0.00000762   -0.00001476
     atom  135 type  1   force =     0.00000223   -0.00000221   -0.00000575
     atom  136 type  1   force =    -0.00000316    0.00000201   -0.00000052
     atom  137 type  1   force =     0.00000575   -0.00000351    0.00000261
     atom  138 type  1   force =    -0.00000198    0.00001591    0.00000456
     atom  139 type  1   force =    -0.00000352    0.00000053    0.00000394
     atom  140 type  1   force =    -0.00000020   -0.00000046    0.00000462
     atom  141 type  1   force =    -0.00000372   -0.00000044   -0.00001142
     atom  142 type  1   force =     0.00000105    0.00000049    0.00001115
     atom  143 type  1   force =     0.00000665   -0.00000213    0.00000760
     atom  144 type  1   force =    -0.00000516    0.00000781    0.00000243
     atom  145 type  1   force =    -0.00000157    0.00001243   -0.00000556
     atom  146 type  1   force =     0.00000045    0.00000286    0.00000377
     atom  147 type  1   force =    -0.00000839   -0.00000383    0.00001264
     atom  148 type  1   force =     0.00000303   -0.00000127   -0.00000504
     atom  149 type  1   force =     0.00000283    0.00000323    0.00000185
     atom  150 type  1   force =     0.00000443    0.00000035   -0.00000320
     atom  151 type  1   force =    -0.00000303    0.00000830    0.00000524
     atom  152 type  1   force =     0.00000191   -0.00000175   -0.00001158
     atom  153 type  1   force =     0.00000361   -0.00000793    0.00001596
     atom  154 type  1   force =     0.00000037    0.00000240   -0.00000540
     atom  155 type  1   force =     0.00000360    0.00000119   -0.00000531
     atom  156 type  1   force =    -0.00000593    0.00000828   -0.00001897
     atom  157 type  1   force =     0.00000749   -0.00001367   -0.00000081
     atom  158 type  1   force =    -0.00000123   -0.00000475    0.00000226
     atom  159 type  1   force =     0.00000622   -0.00000637    0.00001256
     atom  160 type  1   force =    -0.00000014    0.00000813   -0.00001393
     atom  161 type  1   force =     0.00000010   -0.00000631    0.00000302
     atom  162 type  1   force =    -0.00000661   -0.00000340    0.00001512
     atom  163 type  1   force =    -0.00000197    0.00000619   -0.00000370
     atom  164 type  1   force =    -0.00000182   -0.00000331   -0.00000581
     atom  165 type  1   force =     0.00000498   -0.00000016   -0.00001481
     atom  166 type  1   force =     0.00000270    0.00000375   -0.00000484
     atom  167 type  1   force =     0.00000182    0.00000282   -0.00000263
     atom  168 type  1   force =     0.00001050   -0.00001430    0.00000335
     atom  169 type  1   force =     0.00000971   -0.00000264    0.00001396
     atom  170 type  1   force =    -0.00000066    0.00000607    0.00000238
     atom  171 type  1   force =    -0.00000042   -0.00000633    0.00001013
     atom  172 type  1   force =    -0.00000120    0.00000717   -0.00001360
     atom  173 type  1   force =    -0.00000230    0.00000182   -0.00000864
     atom  174 type  1   force =     0.00000253    0.00000829   -0.00000746
     atom  175 type  1   force =     0.00000011    0.00000438    0.00000274
     atom  176 type  1   force =     0.00000343    0.00000138    0.00000137
     atom  177 type  1   force =    -0.00000074   -0.00000431    0.00001281
     atom  178 type  1   force =     0.00000595   -0.00000948    0.00001141
     atom  179 type  1   force =     0.00000413    0.00000081   -0.00000722
     atom  180 type  1   force =    -0.00000422   -0.00000422    0.00001697
     atom  181 type  1   force =     0.00000199   -0.00000276    0.00001461
     atom  182 type  1   force =    -0.00000571   -0.00000325    0.00000619
     atom  183 type  1   force =     0.00000188    0.00000405    0.00000368
     atom  184 type  1   force =    -0.00000124   -0.00000410    0.00000690
     atom  185 type  1   force =    -0.00000046    0.00000304    0.00000355
     atom  186 type  1   force =    -0.00000460    0.00000190    0.00000168
     atom  187 type  1   force =    -0.00000032    0.00000328   -0.00001104
     atom  188 type  1   force =    -0.00000779   -0.00000033    0.00001857
     atom  189 type  1   force =    -0.00000349    0.00001062    0.00000763
     atom  190 type  1   force =    -0.00000046    0.00000478   -0.00000632
     atom  191 type  1   force =    -0.00000807   -0.00000618    0.00000017
     atom  192 type  1   force =     0.00000110   -0.00000200   -0.00000924
     atom  193 type  1   force =    -0.00000703   -0.00000599   -0.00002165
     atom  194 type  1   force =     0.00000216   -0.00000417    0.00001125
     atom  195 type  1   force =    -0.00000887   -0.00000274    0.00000275
     atom  196 type  1   force =    -0.00000230    0.00000639    0.00000716
     atom  197 type  1   force =     0.00000093   -0.00000538   -0.00000536
     atom  198 type  1   force =     0.00000144    0.00000679   -0.00000398
     atom  199 type  1   force =     0.00000553    0.00000333   -0.00000857
     atom  200 type  1   force =    -0.00000479   -0.00000556   -0.00000042
     atom  201 type  1   force =    -0.00000614   -0.00000494   -0.00001226
     atom  202 type  1   force =    -0.00000551    0.00000465    0.00001499
     atom  203 type  1   force =    -0.00000203    0.00000257   -0.00000539
     atom  204 type  1   force =     0.00000296    0.00000094   -0.00000958
     atom  205 type  1   force =     0.00000521    0.00000234   -0.00000456
     atom  206 type  1   force =     0.00000618   -0.00001737   -0.00001199
     atom  207 type  1   force =     0.00000322    0.00000017   -0.00001161
     atom  208 type  1   force =    -0.00000351    0.00001457    0.00000020
     atom  209 type  1   force =    -0.00001039   -0.00000514    0.00000966
     atom  210 type  1   force =     0.00000069   -0.00000022   -0.00000794
     atom  211 type  1   force =     0.00000170    0.00001158   -0.00001221
     atom  212 type  1   force =    -0.00000137   -0.00000584   -0.00001181
     atom  213 type  1   force =     0.00000504    0.00000192   -0.00000926
     atom  214 type  1   force =     0.00000407    0.00000561   -0.00000420
     atom  215 type  1   force =    -0.00000465    0.00000104   -0.00000022
     atom  216 type  1   force =    -0.00000397   -0.00000115    0.00000979
     atom  217 type  2   force =     0.00000139   -0.00000008    0.00000211
     atom  218 type  2   force =    -0.00000391    0.00000116   -0.00000089
     atom  219 type  2   force =     0.00000236   -0.00000001    0.00000150
     atom  220 type  2   force =     0.00000423   -0.00000483   -0.00000071
     atom  221 type  2   force =     0.00000119   -0.00000252   -0.00000550
     atom  222 type  2   force =     0.00000052    0.00000136    0.00000262
     atom  223 type  2   force =     0.00000091   -0.00000235    0.00000126
     atom  224 type  2   force =     0.00000350   -0.00000229   -0.00000363
     atom  225 type  2   force =     0.00000120    0.00000041   -0.00000265
     atom  226 type  2   force =     0.00000114    0.00000064   -0.00000258
     atom  227 type  2   force =    -0.00000100    0.00000071   -0.00000193
     atom  228 type  2   force =    -0.00000115    0.00000000   -0.00000113
     atom  229 type  2   force =    -0.00000067   -0.00000160   -0.00000281

     Total force =     0.161281     Total SCF correction =     0.000180


     Computing stress (Cartesian axis) and pressure

          total   stress  (Ry/bohr**3)                   (kbar)     P=   16.17
   0.00011723  -0.00000359  -0.00002312         17.24     -0.53     -3.40
  -0.00000359   0.00009441   0.00000399         -0.53     13.89      0.59
  -0.00002312   0.00000399   0.00011816         -3.40      0.59     17.38

     kinetic stress (kbar)   2295.93      0.53     -2.77
                                0.53   2290.74     -0.30
                               -2.77     -0.30   2292.65

     local   stress (kbar)  -1310.84     22.02     13.28
                               22.02  -1283.07     -9.86
                               13.28     -9.86  -1322.74

     nonloc. stress (kbar)   2560.10     -0.26     -0.58
                               -0.26   2560.66     -0.57
                               -0.58     -0.57   2565.26

     hartree stress (kbar)    253.98     -5.73     -4.28
                               -5.73    240.20      2.34
                               -4.28      2.34    246.94

     exc-cor stress (kbar)   -808.26     -0.13     -0.06
                               -0.13   -808.21      0.09
                               -0.06      0.09   -808.10

     corecor stress (kbar)      0.00      0.00      0.00
                                0.00      0.00      0.00
                                0.00      0.00      0.00

     ewald   stress (kbar)  -2973.67    -16.96     -9.00
                              -16.96  -2986.43      8.89
                               -9.00      8.89  -2956.62

     hubbard stress (kbar)      0.00      0.00      0.00
                                0.00      0.00      0.00
                                0.00      0.00      0.00

     london  stress (kbar)      0.00      0.00      0.00
                                0.00      0.00      0.00
                                0.00      0.00      0.00

     DFT-D3  stress (kbar)      0.00      0.00      0.00
                                0.00      0.00      0.00
                                0.00      0.00      0.00

     XDM     stress (kbar)      0.00      0.00      0.00
                                0.00      0.00      0.00
                                0.00      0.00      0.00

     dft-nl  stress (kbar)      0.00      0.00      0.00
                                0.00      0.00      0.00
                                0.00      0.00      0.00

     TS-vdW  stress (kbar)      0.00      0.00      0.00
                                0.00      0.00      0.00
                                0.00      0.00      0.00



     Writing output data file amorph_optimize5.save

     init_run     :    253.92s CPU    258.48s WALL (       1 calls)
     electrons    :  11086.49s CPU  11338.54s WALL (       1 calls)
     forces       :     88.97s CPU     89.74s WALL (       1 calls)
     stress       :    800.94s CPU    807.03s WALL (       1 calls)

     Called by init_run:
     wfcinit      :    240.83s CPU    245.29s WALL (       1 calls)
     wfcinit:atom :      0.78s CPU      1.60s WALL (       8 calls)
     wfcinit:wfcr :    229.10s CPU    231.91s WALL (       8 calls)
     potinit      :      5.23s CPU      5.26s WALL (       1 calls)

     Called by electrons:
     c_bands      :  10243.99s CPU  10483.57s WALL (      25 calls)
     sum_band     :    834.69s CPU    845.61s WALL (      25 calls)
     v_of_rho     :      6.51s CPU      6.59s WALL (      25 calls)
     v_h          :      0.38s CPU      0.38s WALL (      25 calls)
     v_xc         :      6.12s CPU      6.21s WALL (      25 calls)
     mix_rho      :      1.29s CPU      1.56s WALL (      25 calls)

     Called by c_bands:
     init_us_2    :     35.76s CPU     38.11s WALL (     424 calls)
     cegterg      :  10161.81s CPU  10376.30s WALL (     200 calls)

     Called by sum_band:

     Called by *egterg:
     h_psi        :   5624.87s CPU   5668.80s WALL (     965 calls)
     g_psi        :     15.20s CPU     15.28s WALL (     757 calls)
     cdiaghg      :   1648.02s CPU   1653.83s WALL (     949 calls)
     cegterg:over :   1254.37s CPU   1261.67s WALL (     757 calls)
     cegterg:upda :    764.33s CPU    773.28s WALL (     757 calls)
     cegterg:last :    485.62s CPU    490.54s WALL (     200 calls)

     Called by h_psi:
     h_psi:pot    :   5598.30s CPU   5639.25s WALL (     965 calls)
     h_psi:calbec :   1075.62s CPU   1085.74s WALL (     965 calls)
     vloc_psi     :   3471.28s CPU   3496.90s WALL (     965 calls)
     add_vuspsi   :   1051.39s CPU   1056.60s WALL (     965 calls)

     General routines
     calbec       :   1169.50s CPU   1179.97s WALL (    1005 calls)
     fft          :      3.59s CPU      3.63s WALL (     284 calls)
     fftw         :   3835.07s CPU   3863.08s WALL (  597826 calls)

     Parallel routines
     fft_scatt_xy :    523.46s CPU    526.47s WALL (  598110 calls)
     fft_scatt_yz :    848.19s CPU    855.43s WALL (  598110 calls)

     PWSCF        :     3h23m CPU        3h28m WALL


   This run was terminated on:   1:17:31   8Nov2020            

=------------------------------------------------------------------------------=
   JOB DONE.
=------------------------------------------------------------------------------=
