
     Program PWSCF v.6.2 (svn rev. 14038) starts on  7Nov2020 at  8:14:15 

     This program is part of the open-source Quantum ESPRESSO suite
     for quantum simulation of materials; please cite
         "P. Giannozzi et al., J. Phys.:Condens. Matter 21 395502 (2009);
         "P. Giannozzi et al., J. Phys.:Condens. Matter 29 465901 (2017);
          URL http://www.quantum-espresso.org", 
     in publications or presentations arising from this work. More details at
     http://www.quantum-espresso.org/quote

     Parallel version (MPI), running on     8 processors

     MPI processes distributed on     1 nodes
     R & G space division:  proc/nbgrp/npool/nimage =       8
     Waiting for input...
     Reading input from standard input
Warning: card &IONS ignored
Warning: card / ignored

     Current dimensions of program PWSCF are:
     Max number of different atomic species (ntypx) = 10
     Max number of k-points (npk) =  40000
     Max angular momentum in pseudopotentials (lmaxx) =  3

     Subspace diagonalization in iterative solution of the eigenvalue problem:
     a serial algorithm will be used


     Parallelization info
     --------------------
     sticks:   dense  smooth     PW     G-vecs:    dense   smooth      PW
     Min        1618    1618    426               136929   136929   18534
     Max        1619    1619    427               136932   136932   18535
     Sum       12951   12951   3415              1095447  1095447  148277



     bravais-lattice index     =            0
     lattice parameter (alat)  =      31.2886  a.u.
     unit-cell volume          =   29788.5588 (a.u.)^3
     number of atoms/cell      =          233
     number of atomic types    =            2
     number of electrons       =       881.00
     number of Kohn-Sham states=          529
     kinetic-energy cutoff     =      42.0000  Ry
     charge density cutoff     =     168.0000  Ry
     convergence threshold     =      1.0E-08
     mixing beta               =       0.3000
     number of iterations used =            8  plain     mixing
     Exchange-correlation      = SLA-PW-PBX-PBC ( 1  4  3  4 0 0)

     celldm(1)=  31.288588  celldm(2)=   0.000000  celldm(3)=   0.000000
     celldm(4)=   0.000000  celldm(5)=   0.000000  celldm(6)=   0.000000

     crystal axes: (cart. coord. in units of alat)
               a(1) = (   1.000000   0.000000   0.000000 )  
               a(2) = (   0.005685   0.989268   0.000000 )  
               a(3) = (   0.021475   0.001989   0.983054 )  

     reciprocal axes: (cart. coord. in units 2 pi/alat)
               b(1) = (  1.000000 -0.005746 -0.021834 )  
               b(2) = (  0.000000  1.010848 -0.002046 )  
               b(3) = (  0.000000  0.000000  1.017238 )  


     PseudoPot. # 1 for Si read from file:
     ./Si.pbe-hgh.UPF
     MD5 check sum: 9a9f0f6e09139bfdb36b03ff6bc35900
     Pseudo is Norm-conserving, Zval =  4.0
     Generated in analytical, separable form
     Using radial grid of 1141 points,  3 beta functions with: 
                l(1) =   0
                l(2) =   0
                l(3) =   1

     PseudoPot. # 2 for H  read from file:
     ./H.pbe-hgh.UPF
     MD5 check sum: 5f350582108a937bec95f27f5610ab08
     Pseudo is Norm-conserving, Zval =  1.0
     Generated in analytical, separable form
     Using radial grid of  929 points,  0 beta functions with: 

     atomic species   valence    mass     pseudopotential
        Si             4.00    28.08000     Si( 1.00)
        H              1.00     1.00784     H ( 1.00)

     No symmetry found


                                    s                        frac. trans.

      isym =  1     identity                                     

 cryst.   s( 1) = (     1          0          0      )
                  (     0          1          0      )
                  (     0          0          1      )

 cart.    s( 1) = (  1.0000000  0.0000000  0.0000000 )
                  (  0.0000000  1.0000000  0.0000000 )
                  (  0.0000000  0.0000000  1.0000000 )


   Cartesian axes

     site n.     atom                  positions (alat units)
         1           Si  tau(   1) = (   0.5125665   0.2551257   0.8850251  )
         2           Si  tau(   2) = (   0.4764307   0.9150922   0.8468187  )
         3           Si  tau(   3) = (   0.7582657   0.2088922   0.7725342  )
         4           Si  tau(   4) = (   0.6698403   0.2250874   0.1794841  )
         5           Si  tau(   5) = (   0.1234927   0.8047854   0.6139134  )
         6           Si  tau(   6) = (   0.0984241   0.8188266   0.9495331  )
         7           Si  tau(   7) = (   0.4416082   0.9210037   0.3289300  )
         8           Si  tau(   8) = (   0.1150506   0.3445462   0.3602550  )
         9           Si  tau(   9) = (   0.9622235   0.9614626   0.6485632  )
        10           Si  tau(  10) = (   0.3501650   0.7803561   0.1767315  )
        11           Si  tau(  11) = (   0.0429769   0.3446911   0.4821842  )
        12           Si  tau(  12) = (   0.0285539   0.5670900   0.7845648  )
        13           Si  tau(  13) = (   0.6324144   0.1951626   0.7072486  )
        14           Si  tau(  14) = (   0.8994979   0.7718010   0.2984739  )
        15           Si  tau(  15) = (   0.8293341   0.3791269   0.1641248  )
        16           Si  tau(  16) = (   0.3077470   0.7287064   0.9559750  )
        17           Si  tau(  17) = (   0.1156688   0.6269635   0.2419179  )
        18           Si  tau(  18) = (   0.0204232   0.4284135   0.2938113  )
        19           Si  tau(  19) = (   0.3299049   0.1140165   0.2050366  )
        20           Si  tau(  20) = (   0.7131565   0.3835655   0.3482873  )
        21           Si  tau(  21) = (   0.8347007   0.5537499   0.3388165  )
        22           Si  tau(  22) = (   0.6779501   0.4049700   0.7749466  )
        23           Si  tau(  23) = (   0.5674414   0.0309558   0.8180260  )
        24           Si  tau(  24) = (   0.4886946   0.2734481   0.3150768  )
        25           Si  tau(  25) = (   0.8946222   0.8569834   0.0811865  )
        26           Si  tau(  26) = (   0.7807464   0.0071406   0.7294852  )
        27           Si  tau(  27) = (   0.6527976   0.9558838   0.7187817  )
        28           Si  tau(  28) = (   0.8579320   0.2192239   0.6712668  )
        29           Si  tau(  29) = (   1.0010942   0.4783870   0.5106869  )
        30           Si  tau(  30) = (   0.6453412   0.8187308   0.7486764  )
        31           Si  tau(  31) = (   0.7608906   0.4711080   0.2486695  )
        32           Si  tau(  32) = (   0.6175936   0.1966392   0.9612943  )
        33           Si  tau(  33) = (   0.6005067   0.4068727   0.0080439  )
        34           Si  tau(  34) = (   1.0168877   0.5490289   0.9214079  )
        35           Si  tau(  35) = (   0.5824116   0.6962994   0.5455479  )
        36           Si  tau(  36) = (   0.1789254   0.3497310   0.8002140  )
        37           Si  tau(  37) = (   0.6675213   0.1281639   0.5852800  )
        38           Si  tau(  38) = (   0.7828869   0.9377409   0.1249560  )
        39           Si  tau(  39) = (   0.1413236   0.0447957   0.8397181  )
        40           Si  tau(  40) = (   0.4033989   0.7493815   0.0498170  )
        41           Si  tau(  41) = (   0.6243513   0.0201753   0.2640572  )
        42           Si  tau(  42) = (   0.7603310   0.6252478   0.6856853  )
        43           Si  tau(  43) = (   0.5737999   0.6506063   0.9304048  )
        44           Si  tau(  44) = (   0.1037609   0.9693717   0.3502839  )
        45           Si  tau(  45) = (   0.3649873   0.1126762   0.8181312  )
        46           Si  tau(  46) = (   0.8276586   0.0743562   0.1669570  )
        47           Si  tau(  47) = (   0.0992760   0.3895583   0.6899271  )
        48           Si  tau(  48) = (   0.2913018   0.9620181   0.5363534  )
        49           Si  tau(  49) = (   0.0904715   0.5759810   0.5662658  )
        50           Si  tau(  50) = (   0.4466786   0.2707864   0.5470205  )
        51           Si  tau(  51) = (   0.6689505   0.0711334   0.9157288  )
        52           Si  tau(  52) = (   0.0300580   0.3358216   0.0208386  )
        53           Si  tau(  53) = (   0.1167530   0.2160669   0.2961667  )
        54           Si  tau(  54) = (   0.9165036   0.1299607   0.9002486  )
        55           Si  tau(  55) = (   0.6742043   0.4465143   0.4674177  )
        56           Si  tau(  56) = (   0.2498407   0.5624087   0.2540969  )
        57           Si  tau(  57) = (   0.4706398   0.0884196   0.4587246  )
        58           Si  tau(  58) = (   0.4076439   0.5346138   0.0529796  )
        59           Si  tau(  59) = (   0.5689356   0.6855303   0.3099432  )
        60           Si  tau(  60) = (   0.9963887   0.2195315   0.0953213  )
        61           Si  tau(  61) = (   0.9732063   0.4476131   0.7259000  )
        62           Si  tau(  62) = (   0.1005530   0.2839224   0.5990851  )
        63           Si  tau(  63) = (   0.5065113   0.3666288   0.6277195  )
        64           Si  tau(  64) = (   0.8316412   0.8868642   0.8051735  )
        65           Si  tau(  65) = (   0.1986086   0.6343518   0.0348709  )
        66           Si  tau(  66) = (   0.1829827   0.1488939   0.9318666  )
        67           Si  tau(  67) = (   0.4616241   0.8630889   0.2047024  )
        68           Si  tau(  68) = (   0.8784050   0.0891275   0.3920902  )
        69           Si  tau(  69) = (   0.8671096   0.9446596   0.4259997  )
        70           Si  tau(  70) = (   0.6795243   0.5462809   0.7719325  )
        71           Si  tau(  71) = (   0.2543176   0.6907311   0.7456526  )
        72           Si  tau(  72) = (   0.6135753   0.8989154   0.4790630  )
        73           Si  tau(  73) = (   0.1669868   0.0356695   0.5828539  )
        74           Si  tau(  74) = (   0.0956393   0.1187650   0.4010409  )
        75           Si  tau(  75) = (   0.9545563   0.4241896   0.9465947  )
        76           Si  tau(  76) = (   0.9206076   0.5660474   0.1427080  )
        77           Si  tau(  77) = (   0.2539965   0.5468034   0.4024192  )
        78           Si  tau(  78) = (   1.0049084   0.0181686   0.8801078  )
        79           Si  tau(  79) = (   0.2774292   0.8514045   0.4446649  )
        80           Si  tau(  80) = (   0.7947086   0.8553746   0.3411365  )
        81           Si  tau(  81) = (   0.3835704   0.5799936   0.4406708  )
        82           Si  tau(  82) = (   0.4811943   0.4174729   0.0902872  )
        83           Si  tau(  83) = (   0.7749156   0.3294796   0.8437053  )
        84           Si  tau(  84) = (   0.4124225   0.8154566   0.4198349  )
        85           Si  tau(  85) = (   0.8006046   0.0970833   0.6189359  )
        86           Si  tau(  86) = (   0.6568015   0.6763475   0.4255779  )
        87           Si  tau(  87) = (   0.9690790   0.9114631   0.7849934  )
        88           Si  tau(  88) = (   1.0027218   0.9274066   0.0147710  )
        89           Si  tau(  89) = (   0.3234189   0.0429671   0.0814314  )
        90           Si  tau(  90) = (   0.6859290   0.7344700   0.6382509  )
        91           Si  tau(  91) = (   0.3759093   0.5209318   0.9038692  )
        92           Si  tau(  92) = (   0.3589250   0.9675674   0.7854358  )
        93           Si  tau(  93) = (   0.1121194   0.1404948   0.0815735  )
        94           Si  tau(  94) = (   0.2209077   0.9365836   0.0844451  )
        95           Si  tau(  95) = (   0.3076226   0.3002731   0.7657914  )
        96           Si  tau(  96) = (   0.7128382   0.3015866   0.9705223  )
        97           Si  tau(  97) = (   0.3302293   0.0713039   0.4425966  )
        98           Si  tau(  98) = (   0.0703948   0.9258013   0.5668527  )
        99           Si  tau(  99) = (   0.9520283   0.1137115   0.6189428  )
       100           Si  tau( 100) = (   0.9775346   0.8388258   0.2021327  )
       101           Si  tau( 101) = (   0.3499267   0.6533776   0.8454866  )
       102           Si  tau( 102) = (   0.1766963   0.8119831   0.7462925  )
       103           Si  tau( 103) = (   0.0568380   0.6408879   0.3702467  )
       104           Si  tau( 104) = (   0.7953338   0.7882602   0.5603793  )
       105           Si  tau( 105) = (   0.9108632   0.7020290   0.5371074  )
       106           Si  tau( 106) = (   0.6348218   0.3288453   0.6656703  )
       107           Si  tau( 107) = (   0.0830417   0.7123333   0.0594969  )
       108           Si  tau( 108) = (   0.1023779   0.7635153   0.1872129  )
       109           Si  tau( 109) = (   0.8544295   0.9198077   0.5665489  )
       110           Si  tau( 110) = (   0.3147211   0.3896157   0.9426792  )
       111           Si  tau( 111) = (   0.7736629   0.2685228   0.0952135  )
       112           Si  tau( 112) = (   0.9748809   0.7474749   0.4148450  )
       113           Si  tau( 113) = (   0.8433408   0.4716871   0.0611123  )
       114           Si  tau( 114) = (   0.6918783   0.5600718   0.1581430  )
       115           Si  tau( 115) = (   0.6211824   0.9880461   0.5873788  )
       116           Si  tau( 116) = (   0.2360666   0.8542508   0.9502586  )
       117           Si  tau( 117) = (   0.2378232   0.4166678   0.0840359  )
       118           Si  tau( 118) = (   0.0544005   0.7997381   0.8152842  )
       119           Si  tau( 119) = (   0.8541235   0.6528606   0.2394868  )
       120           Si  tau( 120) = (   0.8487585   0.7273165   0.0305519  )
       121           Si  tau( 121) = (   0.5429679   0.5749477   0.7429777  )
       122           Si  tau( 122) = (   0.0279218   0.9693764   0.2318524  )
       123           Si  tau( 123) = (   0.9202813   0.3328080   0.2602322  )
       124           Si  tau( 124) = (   0.1626252   0.6342293   0.4622056  )
       125           Si  tau( 125) = (   0.7489337   0.5673363   0.4530838  )
       126           Si  tau( 126) = (   0.4517787   0.9586793   0.0988255  )
       127           Si  tau( 127) = (   0.7027220   0.5957986   0.9048523  )
       128           Si  tau( 128) = (   0.3928529   0.2693573   0.9652059  )
       129           Si  tau( 129) = (   0.3242983   0.0191471   0.3130163  )
       130           Si  tau( 130) = (   0.5620086   0.5925955   0.2019026  )
       131           Si  tau( 131) = (   0.3755395   0.5832962   0.5816988  )
       132           Si  tau( 132) = (   0.8699709   0.1647809   0.0598637  )
       133           Si  tau( 133) = (   0.2802327   0.5477941   0.1151805  )
       134           Si  tau( 134) = (   0.5073899   0.8140313   0.5255211  )
       135           Si  tau( 135) = (   0.2244863   0.8448311   0.1935349  )
       136           Si  tau( 136) = (   0.1778772   0.4965437   0.6439497  )
       137           Si  tau( 137) = (   0.1693620   0.5757086   0.7586751  )
       138           Si  tau( 138) = (   0.1112460   0.2680166   0.8936887  )
       139           Si  tau( 139) = (   0.4694826   0.4738873   0.8095943  )
       140           Si  tau( 140) = (   0.4001176   0.3030651   0.1167465  )
       141           Si  tau( 141) = (   0.8295639   0.2986891   0.3629014  )
       142           Si  tau( 142) = (   0.5665372   0.3855551   0.8612194  )
       143           Si  tau( 143) = (   0.9629783   0.6444630   0.0357695  )
       144           Si  tau( 144) = (   0.3134380   0.4578853   0.6147294  )
       145           Si  tau( 145) = (   0.0468048   0.1889563   0.6932833  )
       146           Si  tau( 146) = (   0.3964555   0.4014991   0.7140474  )
       147           Si  tau( 147) = (   0.4860103   0.6771243   0.8197512  )
       148           Si  tau( 148) = (   0.7084206   0.3333704   0.5450230  )
       149           Si  tau( 149) = (   0.2142615   0.1968450   0.1771729  )
       150           Si  tau( 150) = (   0.5142655   0.4631755   0.2180542  )
       151           Si  tau( 151) = (   0.5036563   0.1591887   0.7775812  )
       152           Si  tau( 152) = (   0.2287948   0.9107759   0.3222127  )
       153           Si  tau( 153) = (   0.8470485   0.7025974   0.7666594  )
       154           Si  tau( 154) = (   0.3378599   0.3599270   0.5125822  )
       155           Si  tau( 155) = (   0.4307871   0.4041164   0.3144614  )
       156           Si  tau( 156) = (   0.5245971   0.2170830   0.4414100  )
       157           Si  tau( 157) = (   0.0277824   0.6976144   0.6185328  )
       158           Si  tau( 158) = (   0.9149204   0.3596168   0.8261499  )
       159           Si  tau( 159) = (   0.0458514   0.5134867   0.1843187  )
       160           Si  tau( 160) = (   0.7659840   0.1723753   0.3750844  )
       161           Si  tau( 161) = (   0.3820973   0.9471742   0.6453997  )
       162           Si  tau( 162) = (   0.4982377   0.6444316   0.0779314  )
       163           Si  tau( 163) = (   0.5666767   0.0336227   0.1350884  )
       164           Si  tau( 164) = (   0.9698777   0.5266302   0.3818605  )
       165           Si  tau( 165) = (   0.0356314   0.8781491   0.4362402  )
       166           Si  tau( 166) = (   0.1610796   0.1039172   0.7096118  )
       167           Si  tau( 167) = (   0.4370712   0.4512416   0.4442294  )
       168           Si  tau( 168) = (   0.9851267   0.6938220   0.7517131  )
       169           Si  tau( 169) = (   0.3240261   0.1436494   0.9541485  )
       170           Si  tau( 170) = (   0.9319118   0.0865307   0.2597170  )
       171           Si  tau( 171) = (   0.7041827   0.5042000   0.0291461  )
       172           Si  tau( 172) = (   0.9723553   0.1460012   0.4786295  )
       173           Si  tau( 173) = (   0.4198816   0.1703303   0.6463287  )
       174           Si  tau( 174) = (   0.7218210   0.1199156   0.2524975  )
       175           Si  tau( 175) = (   0.1043389   0.4414630   0.0762632  )
       176           Si  tau( 176) = (   0.7929188   0.7049770   0.8964000  )
       177           Si  tau( 177) = (   0.7601361   0.6843046   0.1358827  )
       178           Si  tau( 178) = (   0.2324465   0.9190569   0.8251571  )
       179           Si  tau( 179) = (   0.4484363   0.1992110   0.1989849  )
       180           Si  tau( 180) = (   0.7201691   0.8222296   0.8698103  )
       181           Si  tau( 181) = (   0.4956566   0.8665655   0.9797207  )
       182           Si  tau( 182) = (   0.6335028   0.7459546   0.1030624  )
       183           Si  tau( 183) = (   0.1527327   0.5312556   0.9511846  )
       184           Si  tau( 184) = (   0.8990197   0.4590853   0.6054690  )
       185           Si  tau( 185) = (   0.5596126   0.1705446   0.1142535  )
       186           Si  tau( 186) = (   0.9911324   0.2142095   0.2337890  )
       187           Si  tau( 187) = (   0.2143142   0.1480727   0.4751986  )
       188           Si  tau( 188) = (   0.6181674   0.8478136   0.0033189  )
       189           Si  tau( 189) = (   0.7900402   0.0924343   0.8428255  )
       190           Si  tau( 190) = (   0.2427605   0.2636239   0.5909011  )
       191           Si  tau( 191) = (   0.4328413   0.8181226   0.6451510  )
       192           Si  tau( 192) = (   0.4366112   0.6871990   0.3636239  )
       193           Si  tau( 193) = (   0.7162387   0.8039390   0.4430281  )
       194           Si  tau( 194) = (   0.0859751   0.0041453   0.1067931  )
       195           Si  tau( 195) = (   0.5914246   0.8011782   0.2245905  )
       196           Si  tau( 196) = (   0.2307820   0.4738605   0.8462121  )
       197           Si  tau( 197) = (   0.2155293   0.7521307   0.5210846  )
       198           Si  tau( 198) = (   0.8449472   0.3279042   0.5804287  )
       199           Si  tau( 199) = (   0.2928243   0.4215284   0.2851103  )
       200           Si  tau( 200) = (   0.3195693   0.7254065   0.6197666  )
       201           Si  tau( 201) = (   0.5537642   0.9853082   0.3812560  )
       202           Si  tau( 202) = (   0.6692277   0.9722759   0.0456001  )
       203           Si  tau( 203) = (   0.9200025   0.2799416   0.4714650  )
       204           Si  tau( 204) = (   0.4792371   0.0397614   0.5915883  )
       205           Si  tau( 205) = (   0.2758344   0.3268328   0.1810157  )
       206           Si  tau( 206) = (   0.8314701   0.5823137   0.5703504  )
       207           Si  tau( 207) = (   0.5489300   0.4669784   0.5354333  )
       208           Si  tau( 208) = (   0.9892482   0.2338189   0.8224714  )
       209           Si  tau( 209) = (   0.5079917   0.8036385   0.7653146  )
       210           Si  tau( 210) = (   0.2312869   0.4045366   0.4204612  )
       211           Si  tau( 211) = (   0.6667525   0.2141185   0.4738587  )
       212           Si  tau( 212) = (   0.5153142   0.5877604   0.6054720  )
       213           Si  tau( 213) = (   0.6183401   0.3128064   0.2741443  )
       214           Si  tau( 214) = (   0.2893453   0.1729081   0.7082945  )
       215           Si  tau( 215) = (   0.7045082   0.8926793   0.2391476  )
       216           Si  tau( 216) = (   0.3337637   0.6769095   0.2687090  )
       217           H   tau( 217) = (   0.2687087   0.7194085   0.3220102  )
       218           H   tau( 218) = (   0.4948456   0.1009569   0.6663732  )
       219           H   tau( 219) = (   0.1819226   0.4225907   0.5010696  )
       220           H   tau( 220) = (   0.6045032   0.7389080   0.9321409  )
       221           H   tau( 221) = (   0.3535807   0.2731516   0.8417294  )
       222           H   tau( 222) = (   0.3055786   0.4735492   0.7862330  )
       223           H   tau( 223) = (   0.5893334   0.3925716   0.2245384  )
       224           H   tau( 224) = (   0.8124232   0.0273248   0.5486082  )
       225           H   tau( 225) = (   0.8306645   0.7956081   0.7450204  )
       226           H   tau( 226) = (   0.2410418   0.2220299   0.4211778  )
       227           H   tau( 227) = (   0.2804477   0.1934355   0.5342723  )
       228           H   tau( 228) = (   0.3817843   0.6877896   0.5552428  )
       229           H   tau( 229) = (   0.2873313   0.6273357   0.5896114  )
       230           H   tau( 230) = (   0.6211132   0.5006033   0.5939221  )
       231           H   tau( 231) = (   0.7510913   0.6955854   0.5549292  )
       232           H   tau( 232) = (   0.9552027   0.9212533   0.3916321  )
       233           H   tau( 233) = (   0.2503196   0.2043360   0.0848857  )

   Crystallographic axes

     site n.     atom                  positions (cryst. coord.)
         1           Si  tau(   1) = (  0.4917770  0.2560830  0.9002810  )
         2           Si  tau(   2) = (  0.4526830  0.9232870  0.8614160  )
         3           Si  tau(   3) = (  0.7401980  0.2095780  0.7858510  )
         4           Si  tau(   4) = (  0.6646280  0.2271620  0.1825780  )
         5           Si  tau(   5) = (  0.1054640  0.8122600  0.6244960  )
         6           Si  tau(   6) = (  0.0729869  0.8257670  0.9659010  )
         7           Si  tau(   7) = (  0.4291340  0.9303220  0.3346000  )
         8           Si  tau(   8) = (  0.1052050  0.3475470  0.3664650  )
         9           Si  tau(   9) = (  0.9425380  0.9705660  0.6597430  )
        10           Si  tau(  10) = (  0.3418220  0.7884600  0.1797780  )
        11           Si  tau(  11) = (  0.0304683  0.3474440  0.4904960  )
        12           Si  tau(  12) = (  0.0081651  0.5716370  0.7980890  )
        13           Si  tau(  13) = (  0.6158510  0.1958330  0.7194400  )
        14           Si  tau(  14) = (  0.8885460  0.7795630  0.3036190  )
        15           Si  tau(  15) = (  0.8235720  0.3829040  0.1669540  )
        16           Si  tau(  16) = (  0.2826870  0.7346560  0.9724540  )
        17           Si  tau(  17) = (  0.1067840  0.6332700  0.2460880  )
        18           Si  tau(  18) = (  0.0115464  0.4324600  0.2988760  )
        19           Si  tau(  19) = (  0.3247730  0.1148340  0.2085710  )
        20           Si  tau(  20) = (  0.7033480  0.3870140  0.3542910  )
        21           Si  tau(  21) = (  0.8241210  0.5590640  0.3446570  )
        22           Si  tau(  22) = (  0.6587030  0.4077780  0.7883050  )
        23           Si  tau(  23) = (  0.5494030  0.0296183  0.8321270  )
        24           Si  tau(  24) = (  0.4802440  0.2757700  0.3205080  )
        25           Si  tau(  25) = (  0.8879250  0.8661140  0.0825860  )
        26           Si  tau(  26) = (  0.7647780  0.0057258  0.7420600  )
        27           Si  tau(  27) = (  0.6316110  0.9647830  0.7311720  )
        28           Si  tau(  28) = (  0.8420160  0.2202290  0.6828380  )
        29           Si  tau(  29) = (  0.9871950  0.4825320  0.5194900  )
        30           Si  tau(  30) = (  0.6242900  0.8260810  0.7615820  )
        31           Si  tau(  31) = (  0.7527540  0.4757100  0.2529560  )
        32           Si  tau(  32) = (  0.5954750  0.1968060  0.9778650  )
        33           Si  tau(  33) = (  0.5979930  0.4112700  0.0081825  )
        34           Si  tau(  34) = (  0.9936150  0.5531000  0.9372910  )
        35           Si  tau(  35) = (  0.5664990  0.7027370  0.5549520  )
        36           Si  tau(  36) = (  0.1594440  0.3518880  0.8140080  )
        37           Si  tau(  37) = (  0.6540060  0.1283570  0.5953690  )
        38           Si  tau(  38) = (  0.7747700  0.9476580  0.1271100  )
        39           Si  tau(  39) = (  0.1227320  0.0435640  0.8541930  )
        40           Si  tau(  40) = (  0.3980050  0.7574090  0.0506757  )
        41           Si  tau(  41) = (  0.6184700  0.0198540  0.2686090  )
        42           Si  tau(  42) = (  0.7417670  0.6306280  0.6975050  )
        43           Si  tau(  43) = (  0.5497470  0.6557610  0.9464430  )
        44           Si  tau(  44) = (  0.0905425  0.9791710  0.3563220  )
        45           Si  tau(  45) = (  0.3464770  0.1122250  0.8322340  )
        46           Si  tau(  46) = (  0.8235860  0.0748213  0.1698350  )
        47           Si  tau(  47) = (  0.0819738  0.3923730  0.7018200  )
        48           Si  tau(  48) = (  0.2740630  0.9713570  0.5455990  )
        49           Si  tau(  49) = (  0.0747980  0.5810710  0.5760270  )
        50           Si  tau(  50) = (  0.4331790  0.2726050  0.5564500  )
        51           Si  tau(  51) = (  0.6485480  0.0700319  0.9315140  )
        52           Si  tau(  52) = (  0.0276732  0.3394220  0.0211978  )
        53           Si  tau(  53) = (  0.1090450  0.2178050  0.3012720  )
        54           Si  tau(  54) = (  0.8961010  0.1295290  0.9157670  )
        55           Si  tau(  55) = (  0.6614330  0.4504020  0.4754750  )
        56           Si  tau(  56) = (  0.2410610  0.5679900  0.2584770  )
        57           Si  tau(  57) = (  0.4601160  0.0884404  0.4666320  )
        58           Si  tau(  58) = (  0.4034150  0.5403050  0.0538929  )
        59           Si  tau(  59) = (  0.5582290  0.6923330  0.3152860  )
        60           Si  tau(  60) = (  0.9930460  0.2217180  0.0969644  )
        61           Si  tau(  61) = (  0.9547850  0.4509840  0.7384130  )
        62           Si  tau(  62) = (  0.0858412  0.2857770  0.6094120  )
        63           Si  tau(  63) = (  0.4906990  0.3693220  0.6385400  )
        64           Si  tau(  64) = (  0.8089650  0.8948380  0.8190530  )
        65           Si  tau(  65) = (  0.1942020  0.6411620  0.0354720  )
        66           Si  tau(  66) = (  0.1617810  0.1486030  0.9479300  )
        67           Si  tau(  67) = (  0.4521950  0.8720330  0.2082310  )
        68           Si  tau(  68) = (  0.8693320  0.0892923  0.3988490  )
        69           Si  tau(  69) = (  0.8523800  0.9540360  0.4333430  )
        70           Si  tau(  70) = (  0.6595310  0.5506280  0.7852390  )
        71           Si  tau(  71) = (  0.2340680  0.6966990  0.7585060  )
        72           Si  tau(  72) = (  0.5979500  0.9076870  0.4873210  )
        73           Si  tau(  73) = (  0.1540560  0.0348642  0.5929010  )
        74           Si  tau(  74) = (  0.0862006  0.1192330  0.4079540  )
        75           Si  tau(  75) = (  0.9314510  0.4268550  0.9629120  )
        76           Si  tau(  76) = (  0.9142390  0.5718960  0.1451680  )
        77           Si  tau(  77) = (  0.2420680  0.5519120  0.4093560  )
        78           Si  tau(  78) = (  0.9855880  0.0165654  0.8952790  )
        79           Si  tau(  79) = (  0.2628280  0.8597310  0.4523300  )
        80           Si  tau(  80) = (  0.7823450  0.8639560  0.3470170  )
        81           Si  tau(  81) = (  0.3706160  0.5853840  0.4482670  )
        82           Si  tau(  82) = (  0.4768240  0.4218170  0.0918436  )
        83           Si  tau(  83) = (  0.7546010  0.3313280  0.8582490  )
        84           Si  tau(  84) = (  0.3985700  0.8234440  0.4270720  )
        85           Si  tau(  85) = (  0.7865330  0.0968704  0.6296050  )
        86           Si  tau(  86) = (  0.6436230  0.6828140  0.4329140  )
        87           Si  tau(  87) = (  0.9467020  0.9197450  0.7985250  )
        88           Si  tau(  88) = (  0.9970700  0.9374370  0.0150256  )
        89           Si  tau(  89) = (  0.3213940  0.0432666  0.0828351  )
        90           Si  tau(  90) = (  0.6677730  0.7411320  0.6492530  )
        91           Si  tau(  91) = (  0.3531810  0.5247340  0.9194500  )
        92           Si  tau(  92) = (  0.3362160  0.9764570  0.7989750  )
        93           Si  tau(  93) = (  0.1095310  0.1418520  0.0829797  )
        94           Si  tau(  94) = (  0.2136820  0.9465710  0.0859008  )
        95           Si  tau(  95) = (  0.2891770  0.3019640  0.7789920  )
        96           Si  tau(  96) = (  0.6899150  0.3028730  0.9872520  )
        97           Si  tau(  97) = (  0.3201560  0.0711721  0.4502260  )
        98           Si  tau(  98) = (  0.0526983  0.9346850  0.5766240  )
        99           Si  tau(  99) = (  0.9378610  0.1136790  0.6296120  )
       100           Si  tau( 100) = (  0.9683010  0.8475120  0.2056170  )
       101           Si  tau( 101) = (  0.3277120  0.6587360  0.8600610  )
       102           Si  tau( 102) = (  0.1557360  0.8192650  0.7591570  )
       103           Si  tau( 103) = (  0.0450713  0.6470830  0.3766290  )
       104           Si  tau( 104) = (  0.7785690  0.7956650  0.5700390  )
       105           Si  tau( 105) = (  0.8951020  0.7085460  0.5463660  )
       106           Si  tau( 106) = (  0.6183980  0.3310510  0.6771450  )
       107           Si  tau( 107) = (  0.0776493  0.7199390  0.0605225  )
       108           Si  tau( 108) = (  0.0939029  0.7714150  0.1904400  )
       109           Si  tau( 109) = (  0.8367740  0.9286270  0.5763150  )
       110           Si  tau( 110) = (  0.2919000  0.3919140  0.9589290  )
       111           Si  tau( 111) = (  0.7700410  0.2712410  0.0968548  )
       112           Si  tau( 112) = (  0.9615280  0.7547350  0.4219960  )
       113           Si  tau( 113) = (  0.8392960  0.4766790  0.0621657  )
       114           Si  tau( 114) = (  0.6852070  0.5658240  0.1608690  )
       115           Si  tau( 115) = (  0.6026800  0.9975630  0.5975040  )
       116           Si  tau( 116) = (  0.2104100  0.8615740  0.9666390  )
       117           Si  tau( 117) = (  0.2335940  0.4210160  0.0854845  )
       118           Si  tau( 118) = (  0.0320042  0.8067460  0.8293380  )
       119           Si  tau( 119) = (  0.8451430  0.6594530  0.2436150  )
       120           Si  tau( 120) = (  0.8439120  0.7351440  0.0310785  )
       121           Si  tau( 121) = (  0.5234420  0.5796650  0.7557850  )
       122           Si  tau( 122) = (  0.0172892  0.9794180  0.2358490  )
       123           Si  tau( 123) = (  0.9126870  0.3358860  0.2647180  )
       124           Si  tau( 124) = (  0.1488890  0.6401640  0.4701730  )
       125           Si  tau( 125) = (  0.7357810  0.5725640  0.4608940  )
       126           Si  tau( 126) = (  0.4441120  0.9688770  0.1005290  )
       127           Si  tau( 127) = (  0.6795420  0.6004110  0.9204500  )
       128           Si  tau( 128) = (  0.3702310  0.2703050  0.9818440  )
       129           Si  tau( 129) = (  0.3173540  0.0187145  0.3184120  )
       130           Si  tau( 130) = (  0.5541950  0.5986110  0.2053830  )
       131           Si  tau( 131) = (  0.3594870  0.5884340  0.5917260  )
       132           Si  tau( 132) = (  0.8677170  0.1664460  0.0608956  )
       133           Si  tau( 133) = (  0.2745700  0.5535010  0.1171660  )
       134           Si  tau( 134) = (  0.4912380  0.8217870  0.5345800  )
       135           Si  tau( 135) = (  0.2154060  0.8536000  0.1968710  )
       136           Si  tau( 136) = (  0.1609640  0.5006130  0.6550500  )
       137           Si  tau( 137) = (  0.1494890  0.5804020  0.7717530  )
       138           Si  tau( 138) = (  0.0901933  0.2690960  0.9090940  )
       139           Si  tau( 139) = (  0.4490830  0.4773720  0.8235500  )
       140           Si  tau( 140) = (  0.3958270  0.3061140  0.1187590  )
       141           Si  tau( 141) = (  0.8199240  0.3011870  0.3691570  )
       142           Si  tau( 142) = (  0.5455180  0.3879760  0.8760650  )
       143           Si  tau( 143) = (  0.9584940  0.6513810  0.0363861  )
       144           Si  tau( 144) = (  0.2973850  0.4615950  0.6253260  )
       145           Si  tau( 145) = (  0.0305820  0.1895880  0.7052340  )
       146           Si  tau( 146) = (  0.3785580  0.4043940  0.7263560  )
       147           Si  tau( 147) = (  0.4642210  0.6827930  0.8338820  )
       148           Si  tau( 148) = (  0.6946050  0.3358720  0.5544180  )
       149           Si  tau( 149) = (  0.2092620  0.1986180  0.1802270  )
       150           Si  tau( 150) = (  0.5068430  0.4677540  0.2218130  )
       151           Si  tau( 151) = (  0.4857640  0.1593250  0.7909850  )
       152           Si  tau( 152) = (  0.2165260  0.9199970  0.3277670  )
       153           Si  tau( 153) = (  0.8262720  0.7086510  0.7798750  )
       154           Si  tau( 154) = (  0.3246000  0.3627830  0.5214180  )
       155           Si  tau( 155) = (  0.4215990  0.4078570  0.3198820  )
       156           Si  tau( 156) = (  0.5137120  0.2185350  0.4490190  )
       157           Si  tau( 157) = (  0.0102687  0.7039170  0.6291950  )
       158           Si  tau( 158) = (  0.8948160  0.3618280  0.8403910  )
       159           Si  tau( 159) = (  0.0388763  0.5186800  0.1874960  )
       160           Si  tau( 160) = (  0.7568040  0.1734780  0.3815500  )
       161           Si  tau( 161) = (  0.3625630  0.9561290  0.6565250  )
       162           Si  tau( 162) = (  0.4928330  0.6512630  0.0792748  )
       163           Si  tau( 163) = (  0.5635340  0.0337111  0.1374170  )
       164           Si  tau( 164) = (  0.9585140  0.5315620  0.3884430  )
       165           Si  tau( 165) = (  0.0210604  0.8867830  0.4437600  )
       166           Si  tau( 166) = (  0.1449890  0.1035930  0.7218440  )
       167           Si  tau( 167) = (  0.4247790  0.4552280  0.4518870  )
       168           Si  tau( 168) = (  0.9647270  0.6998110  0.7646710  )
       169           Si  tau( 169) = (  0.3023680  0.1432560  0.9705960  )
       170           Si  tau( 170) = (  0.9257440  0.0869381  0.2641940  )
       171           Si  tau( 171) = (  0.7006490  0.5096100  0.0296485  )
       172           Si  tau( 172) = (  0.9610660  0.1466060  0.4868800  )
       173           Si  tau( 173) = (  0.4047910  0.1708560  0.6574700  )
       174           Si  tau( 174) = (  0.7156190  0.1207000  0.2568500  )
       175           Si  tau( 175) = (  0.1001370  0.4460960  0.0775778  )
       176           Si  tau( 176) = (  0.7692960  0.7107910  0.9118520  )
       177           Si  tau( 177) = (  0.7532370  0.6914500  0.1382250  )
       178           Si  tau( 178) = (  0.2091490  0.9273390  0.8393810  )
       179           Si  tau( 179) = (  0.4429470  0.2009650  0.2024150  )
       180           Si  tau( 180) = (  0.6964530  0.8293700  0.8848040  )
       181           Si  tau( 181) = (  0.4692860  0.8739620  0.9966090  )
       182           Si  tau( 182) = (  0.6269660  0.7538360  0.1048390  )
       183           Si  tau( 183) = (  0.1289120  0.5350730  0.9675810  )
       184           Si  tau( 184) = (  0.8831620  0.4628270  0.6159060  )
       185           Si  tau( 185) = (  0.5561380  0.1721610  0.1162230  )
       186           Si  tau( 186) = (  0.9847970  0.2160550  0.2378190  )
       187           Si  tau( 187) = (  0.2030880  0.1487070  0.4833900  )
       188           Si  tau( 188) = (  0.6132230  0.8570040  0.0033761  )
       189           Si  tau( 189) = (  0.7711070  0.0917130  0.8573540  )
       190           Si  tau( 190) = (  0.2283440  0.2652750  0.6010870  )
       191           Si  tau( 191) = (  0.4140540  0.8256780  0.6562720  )
       192           Si  tau( 192) = (  0.4247230  0.6939100  0.3698920  )
       193           Si  tau( 193) = (  0.7019460  0.8117540  0.4506650  )
       194           Si  tau( 194) = (  0.0836196  0.0039719  0.1086340  )
       195           Si  tau( 195) = (  0.5819170  0.8094100  0.2284620  )
       196           Si  tau( 196) = (  0.2095830  0.4772700  0.8607990  )
       197           Si  tau( 197) = (  0.1998300  0.7592240  0.5300670  )
       198           Si  tau( 198) = (  0.8303900  0.3302740  0.5904340  )
       199           Si  tau( 199) = (  0.2841770  0.4255180  0.2900250  )
       200           Si  tau( 200) = (  0.3018690  0.7320080  0.6304500  )
       201           Si  tau( 201) = (  0.5397780  0.9952170  0.3878280  )
       202           Si  tau( 202) = (  0.6626450  0.9827300  0.0463861  )
       203           Si  tau( 203) = (  0.9081000  0.2820140  0.4795920  )
       204           Si  tau( 204) = (  0.4660920  0.0389826  0.6017860  )
       205           Si  tau( 205) = (  0.2700040  0.3300080  0.1841360  )
       206           Si  tau( 206) = (  0.8156710  0.5874640  0.5801820  )
       207           Si  tau( 207) = (  0.5345560  0.4709490  0.5446630  )
       208           Si  tau( 208) = (  0.9699470  0.2346730  0.8366490  )
       209           Si  tau( 209) = (  0.4866640  0.8107910  0.7785070  )
       210           Si  tau( 210) = (  0.2197820  0.4080650  0.4277090  )
       211           Si  tau( 211) = (  0.6551760  0.2154720  0.4820270  )
       212           Si  tau( 212) = (  0.4987170  0.5928980  0.6159090  )
       213           Si  tau( 213) = (  0.6105570  0.3156390  0.2788700  )
       214           Si  tau( 214) = (  0.2728870  0.1733350  0.7205040  )
       215           Si  tau( 215) = (  0.6941570  0.9018740  0.2432700  )
       216           Si  tau( 216) = (  0.3240070  0.6837030  0.2733410  )
       217           H   tau( 217) = (  0.2575440  0.7265540  0.3275610  )
       218           H   tau( 218) = (  0.4797160  0.1006890  0.6778600  )
       219           H   tau( 219) = (  0.1685540  0.4261500  0.5097070  )
       220           H   tau( 220) = (  0.5799050  0.7450170  0.9482090  )
       221           H   tau( 221) = (  0.3336330  0.2743930  0.8562390  )
       222           H   tau( 222) = (  0.2856910  0.4770780  0.7997860  )
       223           H   tau( 223) = (  0.5821750  0.3963710  0.2284090  )
       224           H   tau( 224) = (  0.8002880  0.0264990  0.5580650  )
       225           H   tau( 225) = (  0.8098260  0.8027150  0.7578630  )
       226           H   tau( 226) = (  0.2305700  0.2235770  0.4284380  )
       227           H   tau( 227) = (  0.2676710  0.1944410  0.5434820  )
       228           H   tau( 228) = (  0.3657090  0.6941150  0.5648140  )
       229           H   tau( 229) = (  0.2708530  0.6329350  0.5997750  )
       230           H   tau( 230) = (  0.6052690  0.5048190  0.6041600  )
       231           H   tau( 231) = (  0.7349780  0.7019960  0.5644950  )
       232           H   tau( 232) = (  0.9413580  0.9304460  0.3983830  )
       233           H   tau( 233) = (  0.2472920  0.2063790  0.0863489  )

     number of k points=     8  Marzari-Vanderbilt smearing, width (Ry)=  0.0500
                       cart. coord. in units 2pi/alat
        k(    1) = (   0.0000000   0.0000000   0.0000000), wk =   0.2500000
        k(    2) = (   0.0000000   0.0000000  -0.5086189), wk =   0.2500000
        k(    3) = (   0.0000000  -0.5054240   0.0010228), wk =   0.2500000
        k(    4) = (   0.0000000  -0.5054240  -0.5075962), wk =   0.2500000
        k(    5) = (  -0.5000000   0.0028732   0.0109169), wk =   0.2500000
        k(    6) = (  -0.5000000   0.0028732  -0.4977021), wk =   0.2500000
        k(    7) = (  -0.5000000  -0.5025508   0.0119396), wk =   0.2500000
        k(    8) = (  -0.5000000  -0.5025508  -0.4966793), wk =   0.2500000

                       cryst. coord.
        k(    1) = (   0.0000000   0.0000000   0.0000000), wk =   0.2500000
        k(    2) = (   0.0000000   0.0000000  -0.5000000), wk =   0.2500000
        k(    3) = (   0.0000000  -0.5000000   0.0000000), wk =   0.2500000
        k(    4) = (   0.0000000  -0.5000000  -0.5000000), wk =   0.2500000
        k(    5) = (  -0.5000000  -0.0000000   0.0000000), wk =   0.2500000
        k(    6) = (  -0.5000000  -0.0000000  -0.5000000), wk =   0.2500000
        k(    7) = (  -0.5000000  -0.5000000   0.0000000), wk =   0.2500000
        k(    8) = (  -0.5000000  -0.5000000  -0.5000000), wk =   0.2500000

     Dense  grid:  1095447 G-vectors     FFT dimensions: ( 135, 128, 128)

     Dynamical RAM for                 wfc:     138.15 MB

     Dynamical RAM for     wfc (w. buffer):    1243.36 MB

     Dynamical RAM for           str. fact:       4.18 MB

     Dynamical RAM for           local pot:       0.00 MB

     Dynamical RAM for          nlocal pot:     282.05 MB

     Dynamical RAM for                qrad:       1.77 MB

     Dynamical RAM for          rho,v,vnew:      12.60 MB

     Dynamical RAM for               rhoin:       4.20 MB

     Dynamical RAM for            rho*nmix:      33.43 MB

     Dynamical RAM for           G-vectors:       8.88 MB

     Dynamical RAM for          h,s,v(r/c):     204.96 MB

     Dynamical RAM for          <psi|beta>:       8.72 MB

     Dynamical RAM for                 psi:     552.60 MB

     Dynamical RAM for                hpsi:     552.60 MB

     Dynamical RAM for      wfcinit/wfcrot:     477.93 MB

     Estimated static dynamical RAM per process >       1.57 GB

     Estimated max dynamical RAM per process >       2.86 GB

     Estimated total dynamical RAM >      22.86 GB

     Initial potential from superposition of free atoms

     starting charge  880.87903, renormalised to  881.00000
     Starting wfc are  881 randomized atomic wfcs

     total cpu time spent up to now is      281.1 secs

     Self-consistent Calculation

     iteration #  1     ecut=    42.00 Ry     beta= 0.30
     Davidson diagonalization with overlap
     ethr =  1.00E-02,  avg # of iterations =  3.0

     Threshold (ethr) on eigenvalues was too large:
     Diagonalizing with lowered threshold

     Davidson diagonalization with overlap
     ethr =  8.90E-04,  avg # of iterations =  2.0

     total cpu time spent up to now is     1366.5 secs

     total energy              =   -1717.42625565 Ry
     Harris-Foulkes estimate   =   -1719.12096071 Ry
     estimated scf accuracy    <       7.74045674 Ry

     iteration #  2     ecut=    42.00 Ry     beta= 0.30
     Davidson diagonalization with overlap
     ethr =  8.79E-04,  avg # of iterations =  3.1

     total cpu time spent up to now is     1794.1 secs

     total energy              =   -1716.74069598 Ry
     Harris-Foulkes estimate   =   -1718.13065311 Ry
     estimated scf accuracy    <       6.08831286 Ry

     iteration #  3     ecut=    42.00 Ry     beta= 0.30
     Davidson diagonalization with overlap
     ethr =  6.91E-04,  avg # of iterations =  4.9

     total cpu time spent up to now is     2370.9 secs

     total energy              =   -1716.65468649 Ry
     Harris-Foulkes estimate   =   -1718.36527937 Ry
     estimated scf accuracy    <      12.02751581 Ry

     iteration #  4     ecut=    42.00 Ry     beta= 0.30
     Davidson diagonalization with overlap
     ethr =  6.91E-04,  avg # of iterations =  4.0

     total cpu time spent up to now is     2869.6 secs

     total energy              =   -1717.18801609 Ry
     Harris-Foulkes estimate   =   -1717.62427907 Ry
     estimated scf accuracy    <       2.04878716 Ry

     iteration #  5     ecut=    42.00 Ry     beta= 0.30
     Davidson diagonalization with overlap
     ethr =  2.33E-04,  avg # of iterations =  4.5

     total cpu time spent up to now is     3417.8 secs

     total energy              =   -1717.34420562 Ry
     Harris-Foulkes estimate   =   -1717.48414708 Ry
     estimated scf accuracy    <       0.73284184 Ry

     iteration #  6     ecut=    42.00 Ry     beta= 0.30
     Davidson diagonalization with overlap
     ethr =  8.32E-05,  avg # of iterations =  5.2

     total cpu time spent up to now is     3964.0 secs

     total energy              =   -1717.39758906 Ry
     Harris-Foulkes estimate   =   -1717.45311510 Ry
     estimated scf accuracy    <       0.32202815 Ry

     iteration #  7     ecut=    42.00 Ry     beta= 0.30
     Davidson diagonalization with overlap
     ethr =  3.66E-05,  avg # of iterations =  4.4

     total cpu time spent up to now is     4455.5 secs

     total energy              =   -1717.42246249 Ry
     Harris-Foulkes estimate   =   -1717.43420284 Ry
     estimated scf accuracy    <       0.05999824 Ry

     iteration #  8     ecut=    42.00 Ry     beta= 0.30
     Davidson diagonalization with overlap
     ethr =  6.81E-06,  avg # of iterations = 11.2

     total cpu time spent up to now is     5240.0 secs

     total energy              =   -1717.42537658 Ry
     Harris-Foulkes estimate   =   -1717.43375484 Ry
     estimated scf accuracy    <       0.04733641 Ry

     iteration #  9     ecut=    42.00 Ry     beta= 0.30
     Davidson diagonalization with overlap
     ethr =  5.37E-06,  avg # of iterations =  4.8

     total cpu time spent up to now is     5768.0 secs

     total energy              =   -1717.42848444 Ry
     Harris-Foulkes estimate   =   -1717.43153448 Ry
     estimated scf accuracy    <       0.01810126 Ry

     iteration # 10     ecut=    42.00 Ry     beta= 0.30
     Davidson diagonalization with overlap
     ethr =  2.05E-06,  avg # of iterations =  4.6

     total cpu time spent up to now is     6285.6 secs

     total energy              =   -1717.42970902 Ry
     Harris-Foulkes estimate   =   -1717.43078600 Ry
     estimated scf accuracy    <       0.00587632 Ry

     iteration # 11     ecut=    42.00 Ry     beta= 0.30
     Davidson diagonalization with overlap
     ethr =  6.67E-07,  avg # of iterations =  3.0

     total cpu time spent up to now is     6749.4 secs

     total energy              =   -1717.43011778 Ry
     Harris-Foulkes estimate   =   -1717.43056532 Ry
     estimated scf accuracy    <       0.00239900 Ry

     iteration # 12     ecut=    42.00 Ry     beta= 0.30
     Davidson diagonalization with overlap
     ethr =  2.72E-07,  avg # of iterations =  3.0

     total cpu time spent up to now is     7213.8 secs

     total energy              =   -1717.43032097 Ry
     Harris-Foulkes estimate   =   -1717.43045681 Ry
     estimated scf accuracy    <       0.00069408 Ry

     iteration # 13     ecut=    42.00 Ry     beta= 0.30
     Davidson diagonalization with overlap
     ethr =  7.88E-08,  avg # of iterations =  3.0

     total cpu time spent up to now is     7677.4 secs

     total energy              =   -1717.43036295 Ry
     Harris-Foulkes estimate   =   -1717.43041665 Ry
     estimated scf accuracy    <       0.00025521 Ry

     iteration # 14     ecut=    42.00 Ry     beta= 0.30
     Davidson diagonalization with overlap
     ethr =  2.90E-08,  avg # of iterations =  3.0

     total cpu time spent up to now is     8162.6 secs

     total energy              =   -1717.43037492 Ry
     Harris-Foulkes estimate   =   -1717.43042522 Ry
     estimated scf accuracy    <       0.00035464 Ry

     iteration # 15     ecut=    42.00 Ry     beta= 0.30
     Davidson diagonalization with overlap
     ethr =  2.90E-08,  avg # of iterations =  3.0

     total cpu time spent up to now is     8606.1 secs

     total energy              =   -1717.43039833 Ry
     Harris-Foulkes estimate   =   -1717.43040656 Ry
     estimated scf accuracy    <       0.00004497 Ry

     iteration # 16     ecut=    42.00 Ry     beta= 0.30
     Davidson diagonalization with overlap
     ethr =  5.10E-09,  avg # of iterations =  3.0

     total cpu time spent up to now is     9091.7 secs

     total energy              =   -1717.43040197 Ry
     Harris-Foulkes estimate   =   -1717.43040648 Ry
     estimated scf accuracy    <       0.00002666 Ry

     iteration # 17     ecut=    42.00 Ry     beta= 0.30
     Davidson diagonalization with overlap
     ethr =  3.03E-09,  avg # of iterations =  3.0

     total cpu time spent up to now is     9561.9 secs

     total energy              =   -1717.43040423 Ry
     Harris-Foulkes estimate   =   -1717.43040577 Ry
     estimated scf accuracy    <       0.00000961 Ry

     iteration # 18     ecut=    42.00 Ry     beta= 0.30
     Davidson diagonalization with overlap
     ethr =  1.09E-09,  avg # of iterations =  3.0

     total cpu time spent up to now is    10022.5 secs

     total energy              =   -1717.43040511 Ry
     Harris-Foulkes estimate   =   -1717.43040552 Ry
     estimated scf accuracy    <       0.00000287 Ry

     iteration # 19     ecut=    42.00 Ry     beta= 0.30
     Davidson diagonalization with overlap
     ethr =  3.25E-10,  avg # of iterations =  3.0

     total cpu time spent up to now is    10519.0 secs

     total energy              =   -1717.43040535 Ry
     Harris-Foulkes estimate   =   -1717.43040567 Ry
     estimated scf accuracy    <       0.00000265 Ry

     iteration # 20     ecut=    42.00 Ry     beta= 0.30
     Davidson diagonalization with overlap
     ethr =  3.01E-10,  avg # of iterations =  3.0

     total cpu time spent up to now is    10979.5 secs

     total energy              =   -1717.43040558 Ry
     Harris-Foulkes estimate   =   -1717.43040564 Ry
     estimated scf accuracy    <       0.00000069 Ry

     iteration # 21     ecut=    42.00 Ry     beta= 0.30
     Davidson diagonalization with overlap
     ethr =  7.87E-11,  avg # of iterations =  3.0

     total cpu time spent up to now is    11472.6 secs

     total energy              =   -1717.43040566 Ry
     Harris-Foulkes estimate   =   -1717.43040570 Ry
     estimated scf accuracy    <       0.00000043 Ry

     iteration # 22     ecut=    42.00 Ry     beta= 0.30
     Davidson diagonalization with overlap
     ethr =  4.83E-11,  avg # of iterations =  3.0

     total cpu time spent up to now is    11942.3 secs

     total energy              =   -1717.43040570 Ry
     Harris-Foulkes estimate   =   -1717.43040571 Ry
     estimated scf accuracy    <       0.00000014 Ry

     iteration # 23     ecut=    42.00 Ry     beta= 0.30
     Davidson diagonalization with overlap
     ethr =  1.60E-11,  avg # of iterations =  3.0

     total cpu time spent up to now is    12430.9 secs

     total energy              =   -1717.43040572 Ry
     Harris-Foulkes estimate   =   -1717.43040572 Ry
     estimated scf accuracy    <       0.00000008 Ry

     iteration # 24     ecut=    42.00 Ry     beta= 0.30
     Davidson diagonalization with overlap
     ethr =  9.35E-12,  avg # of iterations =  3.0

     total cpu time spent up to now is    12882.4 secs

     total energy              =   -1717.43040573 Ry
     Harris-Foulkes estimate   =   -1717.43040573 Ry
     estimated scf accuracy    <       0.00000003 Ry

     iteration # 25     ecut=    42.00 Ry     beta= 0.30
     Davidson diagonalization with overlap
     ethr =  3.42E-12,  avg # of iterations =  3.0

     total cpu time spent up to now is    13376.0 secs

     total energy              =   -1717.43040573 Ry
     Harris-Foulkes estimate   =   -1717.43040574 Ry
     estimated scf accuracy    <       0.00000004 Ry

     iteration # 26     ecut=    42.00 Ry     beta= 0.30
     Davidson diagonalization with overlap
     ethr =  3.42E-12,  avg # of iterations =  3.0

     total cpu time spent up to now is    13839.2 secs

     total energy              =   -1717.43040573 Ry
     Harris-Foulkes estimate   =   -1717.43040574 Ry
     estimated scf accuracy    <       0.00000001 Ry

     iteration # 27     ecut=    42.00 Ry     beta= 0.30
     Davidson diagonalization with overlap
     ethr =  1.27E-12,  avg # of iterations =  3.0

     total cpu time spent up to now is    14299.2 secs

     End of self-consistent calculation

          k = 0.0000 0.0000 0.0000 (136851 PWs)   bands (ev):

    -6.1922  -5.9065  -5.8440  -5.7203  -5.6568  -5.5999  -5.5505  -5.4695
    -5.3670  -5.2985  -5.2804  -5.2169  -5.1902  -5.1346  -5.0912  -5.0603
    -5.0463  -5.0371  -4.9972  -4.8080  -4.7754  -4.6888  -4.6860  -4.6581
    -4.6232  -4.5845  -4.5601  -4.5102  -4.3914  -4.3367  -4.2746  -4.2200
    -4.1888  -4.1469  -4.1108  -4.0728  -4.0294  -4.0019  -3.9705  -3.9652
    -3.9123  -3.9085  -3.8961  -3.8429  -3.8158  -3.8105  -3.7964  -3.7532
    -3.7474  -3.7291  -3.7081  -3.6638  -3.6499  -3.6403  -3.5969  -3.5681
    -3.5591  -3.5271  -3.5037  -3.4949  -3.4569  -3.4464  -3.4121  -3.3974
    -3.3865  -3.3596  -3.3393  -3.2886  -3.2590  -3.2303  -3.2048  -3.1781
    -3.1388  -3.1092  -3.0677  -3.0383  -3.0284  -3.0056  -2.9673  -2.8684
    -2.8045  -2.7238  -2.6326  -2.6226  -2.5748  -2.5592  -2.4935  -2.4769
    -2.4234  -2.4001  -2.3921  -2.3335  -2.3010  -2.2842  -2.2596  -2.2334
    -2.2241  -2.1703  -2.1608  -2.0986  -2.0791  -2.0324  -2.0134  -1.9871
    -1.9616  -1.9277  -1.9022  -1.8525  -1.8310  -1.8192  -1.7992  -1.7519
    -1.7276  -1.7015  -1.6604  -1.6106  -1.5540  -1.5293  -1.5110  -1.4398
    -1.4058  -1.3949  -1.3789  -1.3534  -1.3250  -1.2701  -1.2471  -1.2167
    -1.1719  -1.0970  -1.0845  -1.0457  -1.0152  -0.9735  -0.9246  -0.9024
    -0.8667  -0.8350  -0.8157  -0.7959  -0.7407  -0.6378  -0.6188  -0.6076
    -0.5407  -0.5136  -0.5033  -0.4252  -0.3872  -0.3840  -0.3505  -0.3417
    -0.3020  -0.2806  -0.2527  -0.2348  -0.1765  -0.1733  -0.1197  -0.0891
    -0.0722  -0.0270   0.0050   0.0512   0.0746   0.1112   0.1773   0.2046
     0.2172   0.2443   0.2810   0.3115   0.3353   0.4215   0.4435   0.4551
     0.4883   0.5245   0.5591   0.5869   0.6043   0.6206   0.6447   0.7289
     0.7591   0.7901   0.8220   0.8441   0.8731   0.8939   0.9309   0.9587
     1.0009   1.0187   1.0445   1.0890   1.0948   1.1436   1.2054   1.2301
     1.2495   1.2743   1.2966   1.3224   1.3721   1.3913   1.4412   1.4462
     1.4798   1.5150   1.5342   1.5708   1.5785   1.6192   1.6422   1.6890
     1.7157   1.7451   1.7910   1.7968   1.8111   1.8254   1.8362   1.8657
     1.9085   1.9329   1.9475   1.9960   2.0080   2.0455   2.0770   2.0844
     2.1067   2.1392   2.1649   2.1796   2.2118   2.2421   2.2611   2.2833
     2.3012   2.3275   2.3356   2.3565   2.3828   2.4087   2.4141   2.4403
     2.4558   2.4811   2.4994   2.5289   2.5445   2.5617   2.5839   2.6130
     2.6203   2.6402   2.6623   2.6693   2.6896   2.7032   2.7250   2.7303
     2.7501   2.7855   2.8061   2.8165   2.8407   2.8524   2.8803   2.8947
     2.9268   2.9406   2.9673   2.9779   2.9951   3.0029   3.0180   3.0396
     3.0447   3.0655   3.0859   3.0941   3.1202   3.1330   3.1714   3.1776
     3.1893   3.2001   3.2338   3.2479   3.2615   3.2693   3.2966   3.2999
     3.3212   3.3220   3.3354   3.3569   3.3655   3.3845   3.3947   3.4133
     3.4305   3.4513   3.4608   3.4743   3.4924   3.5253   3.5322   3.5509
     3.5557   3.5675   3.5744   3.5898   3.6082   3.6170   3.6403   3.6445
     3.6579   3.6745   3.6823   3.6937   3.7050   3.7183   3.7437   3.7475
     3.7689   3.7822   3.7875   3.8038   3.8298   3.8372   3.8501   3.8764
     3.8785   3.9028   3.9124   3.9435   3.9547   3.9646   3.9687   3.9890
     4.0044   4.0121   4.0389   4.0493   4.0507   4.0710   4.0776   4.1071
     4.1194   4.1420   4.1591   4.1664   4.1798   4.1989   4.2197   4.2321
     4.2467   4.2542   4.2807   4.2819   4.2894   4.3066   4.3569   4.3671
     4.3783   4.4056   4.4154   4.4255   4.4368   4.4611   4.4664   4.4802
     4.4878   4.5066   4.5101   4.5295   4.5480   4.5669   4.5909   4.6180
     4.6220   4.6458   4.6619   4.6637   4.6819   4.6946   4.7170   4.7431
     4.7499   4.7683   4.7754   4.8054   4.8365   4.8529   4.8682   4.8859
     4.8906   4.9280   4.9365   4.9526   4.9882   5.0186   5.0329   5.0485
     5.0820   5.0848   5.0969   5.1157   5.1533   5.1670   5.2073   5.2248
     5.2349   5.2478   5.2580   5.2992   5.3291   5.3460   5.4128   5.4222
     5.4736   5.5081   5.5523   5.5992   5.6260   5.6761   5.7510   5.7754
     5.8407   5.8786   5.9089   5.9558   6.0483   6.0940   6.1457   6.2279
     6.2616   6.3458   6.3939   6.5074   6.6778   6.7490   6.8182   6.8715
     6.9125   6.9439   6.9890   7.0266   7.0462   7.0740   7.0888   7.1138
     7.1742   7.2036   7.2437   7.2499   7.2754   7.2975   7.3250   7.3544
     7.3689   7.3958   7.4045   7.4515   7.4566   7.4890   7.5089   7.5161
     7.5440   7.5499   7.5835   7.6120   7.6256   7.6372   7.6687   7.6791
     7.7028   7.7174   7.7365   7.7674   7.7741   7.7998   7.8163   7.8297
     7.8387   7.8863   7.8874   7.8934   7.9304   7.9403   7.9528   7.9700
     8.0017   8.0079   8.0254   8.0411   8.0576   8.0747   8.0863   8.0965
     8.1122   8.1346   8.1502   8.1534   8.1669   8.1951   8.2081   8.2281
     8.2370   8.2483   8.2630   8.2798   8.2964   8.3017   8.3278   8.3391
     8.3699   8.3811   8.3896   8.4264   8.4319   8.4636   8.4701   8.4830
     8.4961

     occupation numbers 
     1.0000   1.0000   1.0000   1.0000   1.0000   1.0000   1.0000   1.0000
     1.0000   1.0000   1.0000   1.0000   1.0000   1.0000   1.0000   1.0000
     1.0000   1.0000   1.0000   1.0000   1.0000   1.0000   1.0000   1.0000
     1.0000   1.0000   1.0000   1.0000   1.0000   1.0000   1.0000   1.0000
     1.0000   1.0000   1.0000   1.0000   1.0000   1.0000   1.0000   1.0000
     1.0000   1.0000   1.0000   1.0000   1.0000   1.0000   1.0000   1.0000
     1.0000   1.0000   1.0000   1.0000   1.0000   1.0000   1.0000   1.0000
     1.0000   1.0000   1.0000   1.0000   1.0000   1.0000   1.0000   1.0000
     1.0000   1.0000   1.0000   1.0000   1.0000   1.0000   1.0000   1.0000
     1.0000   1.0000   1.0000   1.0000   1.0000   1.0000   1.0000   1.0000
     1.0000   1.0000   1.0000   1.0000   1.0000   1.0000   1.0000   1.0000
     1.0000   1.0000   1.0000   1.0000   1.0000   1.0000   1.0000   1.0000
     1.0000   1.0000   1.0000   1.0000   1.0000   1.0000   1.0000   1.0000
     1.0000   1.0000   1.0000   1.0000   1.0000   1.0000   1.0000   1.0000
     1.0000   1.0000   1.0000   1.0000   1.0000   1.0000   1.0000   1.0000
     1.0000   1.0000   1.0000   1.0000   1.0000   1.0000   1.0000   1.0000
     1.0000   1.0000   1.0000   1.0000   1.0000   1.0000   1.0000   1.0000
     1.0000   1.0000   1.0000   1.0000   1.0000   1.0000   1.0000   1.0000
     1.0000   1.0000   1.0000   1.0000   1.0000   1.0000   1.0000   1.0000
     1.0000   1.0000   1.0000   1.0000   1.0000   1.0000   1.0000   1.0000
     1.0000   1.0000   1.0000   1.0000   1.0000   1.0000   1.0000   1.0000
     1.0000   1.0000   1.0000   1.0000   1.0000   1.0000   1.0000   1.0000
     1.0000   1.0000   1.0000   1.0000   1.0000   1.0000   1.0000   1.0000
     1.0000   1.0000   1.0000   1.0000   1.0000   1.0000   1.0000   1.0000
     1.0000   1.0000   1.0000   1.0000   1.0000   1.0000   1.0000   1.0000
     1.0000   1.0000   1.0000   1.0000   1.0000   1.0000   1.0000   1.0000
     1.0000   1.0000   1.0000   1.0000   1.0000   1.0000   1.0000   1.0000
     1.0000   1.0000   1.0000   1.0000   1.0000   1.0000   1.0000   1.0000
     1.0000   1.0000   1.0000   1.0000   1.0000   1.0000   1.0000   1.0000
     1.0000   1.0000   1.0000   1.0000   1.0000   1.0000   1.0000   1.0000
     1.0000   1.0000   1.0000   1.0000   1.0000   1.0000   1.0000   1.0000
     1.0000   1.0000   1.0000   1.0000   1.0000   1.0000   1.0000   1.0000
     1.0000   1.0000   1.0000   1.0000   1.0000   1.0000   1.0000   1.0000
     1.0000   1.0000   1.0000   1.0000   1.0000   1.0000   1.0000   1.0000
     1.0000   1.0000   1.0000   1.0000   1.0000   1.0000   1.0000   1.0000
     1.0000   1.0000   1.0000   1.0000   1.0000   1.0000   1.0000   1.0000
     1.0000   1.0000   1.0000   1.0000   1.0000   1.0000   1.0000   1.0000
     1.0000   1.0000   1.0000   1.0000   1.0000   1.0000   1.0000   1.0000
     1.0000   1.0000   1.0000   1.0000   1.0000   1.0000   1.0000   1.0000
     1.0000   1.0000   1.0000   1.0000   1.0000   1.0000   1.0000   1.0000
     1.0000   1.0000   1.0000   1.0000   1.0000   1.0001   1.0001   1.0001
     1.0001   1.0001   1.0001   1.0001   1.0001   1.0001   1.0002   1.0002
     1.0002   1.0002   1.0003   1.0003   1.0004   1.0004   1.0004   1.0005
     1.0005   1.0006   1.0007   1.0007   1.0007   1.0008   1.0009   1.0011
     1.0012   1.0013   1.0015   1.0016   1.0017   1.0019   1.0022   1.0024
     1.0026   1.0027   1.0032   1.0032   1.0034   1.0037   1.0050   1.0053
     1.0056   1.0065   1.0069   1.0072   1.0077   1.0087   1.0089   1.0096
     1.0100   1.0109   1.0111   1.0122   1.0133   1.0145   1.0162   1.0182
     1.0185   1.0205   1.0219   1.0221   1.0237   1.0250   1.0272   1.0300
     1.0307   1.0328   1.0336   1.0373   1.0412   1.0433   1.0454   1.0477
     1.0484   1.0535   1.0547   1.0569   1.0618   1.0658   1.0677   1.0696
     1.0736   1.0739   1.0752   1.0770   1.0802   1.0811   1.0829   1.0833
     1.0833   1.0832   1.0830   1.0810   1.0781   1.0760   1.0629   1.0605
     1.0444   1.0308   1.0099   0.9836   0.9666   0.9310   0.8693   0.8473
     0.7840   0.7450   0.7129   0.6620   0.5597   0.5096   0.4540   0.3706
     0.3385   0.2650   0.2276   0.1533   0.0770   0.0558   0.0400   0.0305
     0.0246   0.0207   0.0161   0.0130   0.0116   0.0098   0.0090   0.0077
     0.0053   0.0044   0.0033   0.0032   0.0027   0.0023   0.0019   0.0015
     0.0014   0.0011   0.0011   0.0008   0.0007   0.0006   0.0005   0.0005
     0.0004   0.0003   0.0003   0.0002   0.0002   0.0002   0.0001   0.0001
     0.0001   0.0001   0.0001   0.0001   0.0001   0.0000   0.0000   0.0000
     0.0000   0.0000   0.0000   0.0000   0.0000   0.0000   0.0000   0.0000
     0.0000   0.0000   0.0000   0.0000   0.0000   0.0000   0.0000   0.0000
     0.0000   0.0000   0.0000   0.0000   0.0000   0.0000   0.0000   0.0000
     0.0000   0.0000   0.0000   0.0000   0.0000   0.0000   0.0000   0.0000
     0.0000   0.0000   0.0000   0.0000   0.0000   0.0000   0.0000   0.0000
     0.0000

          k = 0.0000 0.0000-0.5086 (136920 PWs)   bands (ev):

    -6.1634  -5.9165  -5.8634  -5.8077  -5.6570  -5.5749  -5.4903  -5.4334
    -5.4166  -5.3683  -5.3327  -5.2043  -5.1548  -5.1314  -5.0759  -5.0184
    -4.9889  -4.9522  -4.9465  -4.8934  -4.7705  -4.6974  -4.6363  -4.6233
    -4.5787  -4.5117  -4.4677  -4.4394  -4.3873  -4.3789  -4.3267  -4.2718
    -4.2209  -4.2058  -4.1741  -4.1444  -4.1089  -4.0750  -4.0378  -4.0122
    -3.9974  -3.9821  -3.9561  -3.9415  -3.9210  -3.8614  -3.8362  -3.7999
    -3.7910  -3.7562  -3.7376  -3.7047  -3.6599  -3.6368  -3.6087  -3.5646
    -3.5161  -3.4945  -3.4807  -3.4540  -3.4246  -3.3837  -3.3441  -3.3289
    -3.2782  -3.2383  -3.2013  -3.1802  -3.1546  -3.1465  -3.0718  -3.0689
    -3.0378  -2.9955  -2.9825  -2.9596  -2.9194  -2.8930  -2.8608  -2.8186
    -2.7782  -2.7386  -2.7227  -2.7099  -2.6831  -2.6405  -2.5931  -2.5551
    -2.5294  -2.5162  -2.4625  -2.4498  -2.3937  -2.3553  -2.3281  -2.2912
    -2.2737  -2.2306  -2.2113  -2.1236  -2.1184  -2.0871  -2.0527  -1.9831
    -1.9680  -1.9580  -1.8993  -1.8743  -1.8037  -1.7618  -1.7518  -1.7058
    -1.6959  -1.6709  -1.6252  -1.5854  -1.5584  -1.5272  -1.5046  -1.4547
    -1.3940  -1.3783  -1.3621  -1.3351  -1.3251  -1.2632  -1.2260  -1.2015
    -1.1583  -1.1180  -1.1072  -1.0269  -1.0026  -0.9910  -0.9320  -0.9217
    -0.9036  -0.8549  -0.8133  -0.7638  -0.7061  -0.6828  -0.6246  -0.5953
    -0.5530  -0.5388  -0.5088  -0.4739  -0.3868  -0.3835  -0.3589  -0.3377
    -0.2985  -0.2717  -0.2262  -0.1944  -0.1394  -0.1057  -0.0588  -0.0485
    -0.0206   0.0011   0.0374   0.0713   0.0949   0.1067   0.1746   0.1867
     0.2099   0.2372   0.2999   0.3418   0.3648   0.3853   0.4208   0.4576
     0.4796   0.5027   0.5436   0.5812   0.6004   0.6349   0.6710   0.7000
     0.7089   0.7602   0.7931   0.8515   0.8828   0.9270   0.9645   0.9723
     0.9891   1.0305   1.0467   1.0874   1.1498   1.1740   1.1837   1.2053
     1.2346   1.2774   1.2960   1.3353   1.3770   1.4059   1.4191   1.4508
     1.4920   1.5156   1.5494   1.5761   1.6085   1.6331   1.6571   1.6974
     1.6997   1.7438   1.7746   1.7840   1.8156   1.8334   1.8737   1.8919
     1.9121   1.9376   1.9800   1.9990   2.0295   2.0495   2.0609   2.0807
     2.1120   2.1613   2.1627   2.2138   2.2234   2.2275   2.2612   2.2638
     2.2926   2.2987   2.3220   2.3568   2.3843   2.4008   2.4227   2.4457
     2.4526   2.4672   2.4963   2.5033   2.5130   2.5323   2.5501   2.5763
     2.6079   2.6326   2.6435   2.6565   2.6816   2.6928   2.7144   2.7235
     2.7406   2.7635   2.7851   2.7961   2.8140   2.8374   2.8519   2.8812
     2.9025   2.9192   2.9301   2.9467   2.9582   2.9806   2.9912   3.0066
     3.0193   3.0420   3.0469   3.0843   3.1024   3.1181   3.1234   3.1348
     3.1778   3.1885   3.2035   3.2076   3.2114   3.2580   3.2597   3.2745
     3.2836   3.2890   3.3247   3.3337   3.3547   3.3622   3.3728   3.3979
     3.4180   3.4281   3.4499   3.4596   3.4645   3.4939   3.5021   3.5115
     3.5219   3.5481   3.5790   3.5811   3.6137   3.6149   3.6416   3.6656
     3.6696   3.6753   3.6981   3.7040   3.7112   3.7274   3.7419   3.7849
     3.7966   3.8130   3.8282   3.8381   3.8601   3.8657   3.8756   3.8985
     3.9133   3.9261   3.9279   3.9398   3.9678   3.9878   4.0024   4.0181
     4.0376   4.0507   4.0680   4.0780   4.0878   4.1177   4.1214   4.1360
     4.1520   4.1808   4.1874   4.1995   4.2246   4.2318   4.2538   4.2651
     4.2936   4.3064   4.3141   4.3337   4.3402   4.3586   4.3689   4.3766
     4.3819   4.4036   4.4199   4.4445   4.4572   4.4772   4.4945   4.5010
     4.5138   4.5253   4.5389   4.5525   4.5563   4.5771   4.5933   4.6170
     4.6253   4.6411   4.6601   4.6639   4.6919   4.7126   4.7323   4.7566
     4.7780   4.7931   4.8096   4.8317   4.8493   4.8577   4.8787   4.8949
     4.8987   4.9201   4.9396   4.9620   4.9780   5.0032   5.0137   5.0321
     5.0515   5.0662   5.0791   5.0980   5.1222   5.1589   5.1691   5.1926
     5.2402   5.2535   5.2663   5.2962   5.3415   5.3704   5.3940   5.4225
     5.4351   5.4750   5.5235   5.5954   5.6385   5.6483   5.7355   5.7743
     5.8108   5.8347   5.9127   5.9661   5.9971   6.0565   6.1881   6.2384
     6.3255   6.3791   6.4025   6.4726   6.6448   6.7695   6.7923   6.8503
     6.8937   6.9234   6.9827   7.0194   7.0306   7.0764   7.1285   7.1408
     7.1580   7.1754   7.2102   7.2265   7.2705   7.2913   7.2998   7.3348
     7.3570   7.3770   7.3996   7.4172   7.4543   7.4703   7.4843   7.5383
     7.5530   7.5687   7.5969   7.6119   7.6401   7.6431   7.6772   7.6793
     7.7074   7.7347   7.7465   7.7663   7.7845   7.7908   7.7973   7.8117
     7.8350   7.8549   7.8851   7.8996   7.9162   7.9273   7.9368   7.9663
     7.9750   7.9901   8.0118   8.0328   8.0352   8.0456   8.0482   8.0884
     8.0932   8.0959   8.1260   8.1470   8.1671   8.1868   8.2074   8.2184
     8.2468   8.2563   8.2586   8.2808   8.3082   8.3192   8.3271   8.3525
     8.3542   8.3640   8.3928   8.4077   8.4266   8.4378   8.4533   8.4699
     8.4771

     occupation numbers 
     1.0000   1.0000   1.0000   1.0000   1.0000   1.0000   1.0000   1.0000
     1.0000   1.0000   1.0000   1.0000   1.0000   1.0000   1.0000   1.0000
     1.0000   1.0000   1.0000   1.0000   1.0000   1.0000   1.0000   1.0000
     1.0000   1.0000   1.0000   1.0000   1.0000   1.0000   1.0000   1.0000
     1.0000   1.0000   1.0000   1.0000   1.0000   1.0000   1.0000   1.0000
     1.0000   1.0000   1.0000   1.0000   1.0000   1.0000   1.0000   1.0000
     1.0000   1.0000   1.0000   1.0000   1.0000   1.0000   1.0000   1.0000
     1.0000   1.0000   1.0000   1.0000   1.0000   1.0000   1.0000   1.0000
     1.0000   1.0000   1.0000   1.0000   1.0000   1.0000   1.0000   1.0000
     1.0000   1.0000   1.0000   1.0000   1.0000   1.0000   1.0000   1.0000
     1.0000   1.0000   1.0000   1.0000   1.0000   1.0000   1.0000   1.0000
     1.0000   1.0000   1.0000   1.0000   1.0000   1.0000   1.0000   1.0000
     1.0000   1.0000   1.0000   1.0000   1.0000   1.0000   1.0000   1.0000
     1.0000   1.0000   1.0000   1.0000   1.0000   1.0000   1.0000   1.0000
     1.0000   1.0000   1.0000   1.0000   1.0000   1.0000   1.0000   1.0000
     1.0000   1.0000   1.0000   1.0000   1.0000   1.0000   1.0000   1.0000
     1.0000   1.0000   1.0000   1.0000   1.0000   1.0000   1.0000   1.0000
     1.0000   1.0000   1.0000   1.0000   1.0000   1.0000   1.0000   1.0000
     1.0000   1.0000   1.0000   1.0000   1.0000   1.0000   1.0000   1.0000
     1.0000   1.0000   1.0000   1.0000   1.0000   1.0000   1.0000   1.0000
     1.0000   1.0000   1.0000   1.0000   1.0000   1.0000   1.0000   1.0000
     1.0000   1.0000   1.0000   1.0000   1.0000   1.0000   1.0000   1.0000
     1.0000   1.0000   1.0000   1.0000   1.0000   1.0000   1.0000   1.0000
     1.0000   1.0000   1.0000   1.0000   1.0000   1.0000   1.0000   1.0000
     1.0000   1.0000   1.0000   1.0000   1.0000   1.0000   1.0000   1.0000
     1.0000   1.0000   1.0000   1.0000   1.0000   1.0000   1.0000   1.0000
     1.0000   1.0000   1.0000   1.0000   1.0000   1.0000   1.0000   1.0000
     1.0000   1.0000   1.0000   1.0000   1.0000   1.0000   1.0000   1.0000
     1.0000   1.0000   1.0000   1.0000   1.0000   1.0000   1.0000   1.0000
     1.0000   1.0000   1.0000   1.0000   1.0000   1.0000   1.0000   1.0000
     1.0000   1.0000   1.0000   1.0000   1.0000   1.0000   1.0000   1.0000
     1.0000   1.0000   1.0000   1.0000   1.0000   1.0000   1.0000   1.0000
     1.0000   1.0000   1.0000   1.0000   1.0000   1.0000   1.0000   1.0000
     1.0000   1.0000   1.0000   1.0000   1.0000   1.0000   1.0000   1.0000
     1.0000   1.0000   1.0000   1.0000   1.0000   1.0000   1.0000   1.0000
     1.0000   1.0000   1.0000   1.0000   1.0000   1.0000   1.0000   1.0000
     1.0000   1.0000   1.0000   1.0000   1.0000   1.0000   1.0000   1.0000
     1.0000   1.0000   1.0000   1.0000   1.0000   1.0000   1.0000   1.0000
     1.0000   1.0000   1.0000   1.0000   1.0000   1.0000   1.0000   1.0000
     1.0000   1.0000   1.0000   1.0000   1.0000   1.0000   1.0000   1.0000
     1.0000   1.0000   1.0000   1.0000   1.0001   1.0001   1.0001   1.0001
     1.0001   1.0001   1.0001   1.0001   1.0002   1.0002   1.0002   1.0002
     1.0003   1.0003   1.0003   1.0003   1.0004   1.0005   1.0005   1.0006
     1.0007   1.0007   1.0008   1.0009   1.0009   1.0011   1.0012   1.0013
     1.0014   1.0017   1.0018   1.0020   1.0023   1.0024   1.0027   1.0029
     1.0035   1.0037   1.0039   1.0044   1.0045   1.0050   1.0053   1.0056
     1.0057   1.0064   1.0070   1.0080   1.0085   1.0094   1.0103   1.0106
     1.0113   1.0120   1.0128   1.0136   1.0138   1.0152   1.0164   1.0181
     1.0188   1.0201   1.0217   1.0221   1.0247   1.0268   1.0288   1.0315
     1.0340   1.0357   1.0378   1.0406   1.0428   1.0439   1.0468   1.0490
     1.0495   1.0524   1.0551   1.0582   1.0604   1.0638   1.0652   1.0676
     1.0700   1.0718   1.0732   1.0753   1.0777   1.0806   1.0812   1.0824
     1.0833   1.0831   1.0828   1.0812   1.0766   1.0720   1.0673   1.0605
     1.0569   1.0439   1.0240   0.9859   0.9581   0.9514   0.8829   0.8483
     0.8136   0.7901   0.7087   0.6506   0.6164   0.5507   0.4101   0.3605
     0.2818   0.2387   0.2212   0.1740   0.0888   0.0506   0.0454   0.0340
     0.0272   0.0232   0.0167   0.0136   0.0127   0.0097   0.0070   0.0065
     0.0058   0.0052   0.0042   0.0037   0.0028   0.0024   0.0023   0.0018
     0.0015   0.0013   0.0011   0.0010   0.0007   0.0007   0.0006   0.0004
     0.0003   0.0003   0.0002   0.0002   0.0002   0.0002   0.0001   0.0001
     0.0001   0.0001   0.0001   0.0001   0.0000   0.0000   0.0000   0.0000
     0.0000   0.0000   0.0000   0.0000   0.0000   0.0000   0.0000   0.0000
     0.0000   0.0000   0.0000   0.0000   0.0000   0.0000   0.0000   0.0000
     0.0000   0.0000   0.0000   0.0000   0.0000   0.0000   0.0000   0.0000
     0.0000   0.0000   0.0000   0.0000   0.0000   0.0000   0.0000   0.0000
     0.0000   0.0000   0.0000   0.0000   0.0000   0.0000   0.0000   0.0000
     0.0000

          k = 0.0000-0.5054 0.0010 (137026 PWs)   bands (ev):

    -6.1238  -6.0548  -5.7922  -5.6859  -5.6704  -5.5724  -5.5429  -5.4906
    -5.4411  -5.4074  -5.2559  -5.2038  -5.1419  -5.1185  -5.0594  -5.0414
    -5.0035  -4.9716  -4.9142  -4.9011  -4.7161  -4.6552  -4.6382  -4.6081
    -4.5708  -4.5612  -4.4941  -4.4617  -4.4409  -4.3777  -4.3383  -4.3019
    -4.2383  -4.1728  -4.1682  -4.1555  -4.1107  -4.0814  -4.0570  -4.0475
    -4.0184  -3.9838  -3.9491  -3.9391  -3.9141  -3.8652  -3.8170  -3.7791
    -3.7564  -3.7386  -3.7192  -3.6967  -3.6321  -3.6299  -3.5789  -3.5563
    -3.5335  -3.5007  -3.4492  -3.4202  -3.3992  -3.3636  -3.3066  -3.2978
    -3.2775  -3.2667  -3.2454  -3.2101  -3.1771  -3.1578  -3.1012  -3.0846
    -3.0457  -3.0035  -2.9748  -2.9241  -2.8787  -2.8574  -2.8352  -2.8285
    -2.7894  -2.7513  -2.7347  -2.6812  -2.6627  -2.6446  -2.6239  -2.5859
    -2.5330  -2.5241  -2.4756  -2.4548  -2.4161  -2.3838  -2.3520  -2.3328
    -2.2889  -2.2592  -2.1989  -2.1661  -2.1476  -2.0738  -2.0334  -2.0148
    -1.9821  -1.9542  -1.8991  -1.8581  -1.8412  -1.8068  -1.7886  -1.7458
    -1.7260  -1.6998  -1.6296  -1.5810  -1.5260  -1.5053  -1.4688  -1.4234
    -1.4036  -1.3766  -1.3416  -1.2750  -1.2617  -1.2307  -1.1728  -1.1641
    -1.1296  -1.0688  -1.0569  -1.0240  -0.9692  -0.9590  -0.9059  -0.8859
    -0.8611  -0.8241  -0.7985  -0.7761  -0.7323  -0.7075  -0.6603  -0.5978
    -0.5540  -0.5140  -0.4864  -0.4634  -0.4436  -0.3692  -0.3409  -0.3295
    -0.3069  -0.2866  -0.2408  -0.1980  -0.1658  -0.1321  -0.0935  -0.0808
    -0.0384  -0.0242  -0.0012   0.0367   0.0881   0.1029   0.1509   0.1729
     0.1919   0.1943   0.2469   0.2940   0.3318   0.3710   0.4091   0.4424
     0.4810   0.5076   0.5795   0.6051   0.6208   0.6367   0.6877   0.6977
     0.7233   0.7857   0.8039   0.8242   0.8622   0.9070   0.9598   0.9822
     1.0061   1.0652   1.0721   1.1136   1.1290   1.1420   1.1625   1.2094
     1.2481   1.2918   1.3126   1.3403   1.3933   1.3997   1.4182   1.4336
     1.4686   1.5081   1.5559   1.6039   1.6190   1.6219   1.6755   1.7087
     1.7233   1.7292   1.7677   1.7963   1.8209   1.8633   1.8658   1.8706
     1.9090   1.9577   1.9905   2.0145   2.0419   2.0665   2.0859   2.1088
     2.1252   2.1542   2.1803   2.1931   2.2341   2.2504   2.2633   2.2680
     2.2870   2.2996   2.3325   2.3572   2.3647   2.3816   2.3884   2.4335
     2.4555   2.4629   2.4894   2.5142   2.5345   2.5517   2.5604   2.5738
     2.5834   2.6152   2.6191   2.6362   2.6807   2.7025   2.7135   2.7356
     2.7450   2.7852   2.7991   2.8058   2.8302   2.8561   2.8713   2.8857
     2.8918   2.9043   2.9255   2.9387   2.9462   2.9726   2.9796   2.9983
     3.0082   3.0270   3.0584   3.0603   3.0861   3.1039   3.1234   3.1413
     3.1683   3.1758   3.1882   3.2155   3.2415   3.2666   3.2761   3.2900
     3.2967   3.3059   3.3286   3.3455   3.3539   3.3641   3.3858   3.3895
     3.4217   3.4257   3.4349   3.4561   3.4804   3.4857   3.5018   3.5058
     3.5418   3.5460   3.5685   3.5743   3.5950   3.6187   3.6272   3.6479
     3.6693   3.6738   3.6999   3.7098   3.7193   3.7282   3.7705   3.7852
     3.8022   3.8220   3.8267   3.8408   3.8563   3.8683   3.8879   3.9052
     3.9271   3.9367   3.9442   3.9764   3.9800   3.9921   4.0005   4.0152
     4.0240   4.0284   4.0568   4.0615   4.0892   4.0956   4.1235   4.1342
     4.1484   4.1651   4.1710   4.1892   4.2053   4.2220   4.2402   4.2479
     4.2630   4.2805   4.2956   4.3129   4.3244   4.3396   4.3655   4.3800
     4.3887   4.3922   4.4046   4.4127   4.4478   4.4756   4.4856   4.5009
     4.5256   4.5308   4.5462   4.5520   4.5693   4.5779   4.6109   4.6210
     4.6310   4.6527   4.6677   4.6867   4.6997   4.7062   4.7372   4.7606
     4.7693   4.7879   4.7936   4.8004   4.8375   4.8628   4.8665   4.8770
     4.9140   4.9230   4.9521   4.9688   4.9808   5.0172   5.0321   5.0378
     5.0697   5.0938   5.1013   5.1126   5.1290   5.1500   5.1791   5.1966
     5.2441   5.2519   5.2766   5.2851   5.3458   5.3757   5.4078   5.4215
     5.4328   5.4924   5.5316   5.5909   5.6151   5.6574   5.7481   5.7883
     5.8246   5.8757   5.8936   5.9482   5.9719   6.0748   6.1101   6.1874
     6.3417   6.3778   6.4242   6.4970   6.6871   6.7425   6.8322   6.8806
     6.8977   6.9058   6.9787   7.0147   7.0400   7.0968   7.1019   7.1349
     7.1634   7.1838   7.2553   7.2795   7.2911   7.3028   7.3222   7.3312
     7.3593   7.3788   7.4253   7.4350   7.4446   7.4579   7.4752   7.4968
     7.5186   7.5273   7.5651   7.5816   7.5928   7.6248   7.6527   7.6745
     7.6982   7.7069   7.7259   7.7477   7.7724   7.7931   7.7988   7.8140
     7.8175   7.8399   7.8583   7.8663   7.9100   7.9309   7.9569   7.9627
     7.9727   7.9883   8.0076   8.0433   8.0465   8.0511   8.0697   8.0730
     8.1121   8.1172   8.1407   8.1493   8.1647   8.1820   8.1879   8.2086
     8.2148   8.2255   8.2605   8.2689   8.2750   8.2811   8.2993   8.3452
     8.3502   8.3733   8.3890   8.4039   8.4178   8.4278   8.4449   8.4606
     8.4709

     occupation numbers 
     1.0000   1.0000   1.0000   1.0000   1.0000   1.0000   1.0000   1.0000
     1.0000   1.0000   1.0000   1.0000   1.0000   1.0000   1.0000   1.0000
     1.0000   1.0000   1.0000   1.0000   1.0000   1.0000   1.0000   1.0000
     1.0000   1.0000   1.0000   1.0000   1.0000   1.0000   1.0000   1.0000
     1.0000   1.0000   1.0000   1.0000   1.0000   1.0000   1.0000   1.0000
     1.0000   1.0000   1.0000   1.0000   1.0000   1.0000   1.0000   1.0000
     1.0000   1.0000   1.0000   1.0000   1.0000   1.0000   1.0000   1.0000
     1.0000   1.0000   1.0000   1.0000   1.0000   1.0000   1.0000   1.0000
     1.0000   1.0000   1.0000   1.0000   1.0000   1.0000   1.0000   1.0000
     1.0000   1.0000   1.0000   1.0000   1.0000   1.0000   1.0000   1.0000
     1.0000   1.0000   1.0000   1.0000   1.0000   1.0000   1.0000   1.0000
     1.0000   1.0000   1.0000   1.0000   1.0000   1.0000   1.0000   1.0000
     1.0000   1.0000   1.0000   1.0000   1.0000   1.0000   1.0000   1.0000
     1.0000   1.0000   1.0000   1.0000   1.0000   1.0000   1.0000   1.0000
     1.0000   1.0000   1.0000   1.0000   1.0000   1.0000   1.0000   1.0000
     1.0000   1.0000   1.0000   1.0000   1.0000   1.0000   1.0000   1.0000
     1.0000   1.0000   1.0000   1.0000   1.0000   1.0000   1.0000   1.0000
     1.0000   1.0000   1.0000   1.0000   1.0000   1.0000   1.0000   1.0000
     1.0000   1.0000   1.0000   1.0000   1.0000   1.0000   1.0000   1.0000
     1.0000   1.0000   1.0000   1.0000   1.0000   1.0000   1.0000   1.0000
     1.0000   1.0000   1.0000   1.0000   1.0000   1.0000   1.0000   1.0000
     1.0000   1.0000   1.0000   1.0000   1.0000   1.0000   1.0000   1.0000
     1.0000   1.0000   1.0000   1.0000   1.0000   1.0000   1.0000   1.0000
     1.0000   1.0000   1.0000   1.0000   1.0000   1.0000   1.0000   1.0000
     1.0000   1.0000   1.0000   1.0000   1.0000   1.0000   1.0000   1.0000
     1.0000   1.0000   1.0000   1.0000   1.0000   1.0000   1.0000   1.0000
     1.0000   1.0000   1.0000   1.0000   1.0000   1.0000   1.0000   1.0000
     1.0000   1.0000   1.0000   1.0000   1.0000   1.0000   1.0000   1.0000
     1.0000   1.0000   1.0000   1.0000   1.0000   1.0000   1.0000   1.0000
     1.0000   1.0000   1.0000   1.0000   1.0000   1.0000   1.0000   1.0000
[...]
     atom   41 type  1   force =    -0.00000298   -0.00000087    0.00000050
     atom   42 type  1   force =    -0.00000593   -0.00000476   -0.00000031
     atom   43 type  1   force =    -0.00000174   -0.00000110    0.00000273
     atom   44 type  1   force =     0.00000057   -0.00000302    0.00000352
     atom   45 type  1   force =     0.00000738    0.00000088   -0.00000316
     atom   46 type  1   force =    -0.00000810   -0.00000074   -0.00000055
     atom   47 type  1   force =     0.00000398    0.00000180   -0.00000345
     atom   48 type  1   force =     0.00000469   -0.00000027    0.00000270
     atom   49 type  1   force =     0.00000436   -0.00000213    0.00000156
     atom   50 type  1   force =     0.00000512    0.00000789    0.00000201
     atom   51 type  1   force =    -0.00000352    0.00000119   -0.00000295
     atom   52 type  1   force =    -0.00000393    0.00000326   -0.00000310
     atom   53 type  1   force =     0.00000008    0.00000366    0.00000676
     atom   54 type  1   force =    -0.00000578   -0.00000131   -0.00000571
     atom   55 type  1   force =    -0.00000888   -0.00000042    0.00000116
     atom   56 type  1   force =     0.00000681    0.00000305    0.00000238
     atom   57 type  1   force =     0.00000402    0.00000458    0.00000292
     atom   58 type  1   force =     0.00000770    0.00000466   -0.00000176
     atom   59 type  1   force =    -0.00000051   -0.00000534   -0.00000137
     atom   60 type  1   force =    -0.00000621    0.00000343   -0.00000280
     atom   61 type  1   force =    -0.00000135    0.00000005   -0.00000275
     atom   62 type  1   force =     0.00000228    0.00000227    0.00000037
     atom   63 type  1   force =     0.00000063    0.00000390   -0.00000350
     atom   64 type  1   force =    -0.00000212    0.00000223   -0.00000124
     atom   65 type  1   force =     0.00000508    0.00000293   -0.00000399
     atom   66 type  1   force =     0.00000338   -0.00000167   -0.00000785
     atom   67 type  1   force =     0.00000418   -0.00000467   -0.00000139
     atom   68 type  1   force =    -0.00000674    0.00000098    0.00000729
     atom   69 type  1   force =    -0.00000533    0.00000063    0.00000484
     atom   70 type  1   force =    -0.00000689   -0.00000359   -0.00000139
     atom   71 type  1   force =     0.00000555   -0.00000334   -0.00000025
     atom   72 type  1   force =    -0.00000121    0.00000011    0.00000053
     atom   73 type  1   force =     0.00000058    0.00000056    0.00000404
     atom   74 type  1   force =    -0.00000053    0.00000108    0.00000716
     atom   75 type  1   force =    -0.00000648    0.00000321   -0.00000122
     atom   76 type  1   force =    -0.00000753    0.00000175    0.00000133
     atom   77 type  1   force =     0.00000823   -0.00000047    0.00000663
     atom   78 type  1   force =    -0.00000257   -0.00000264   -0.00000564
     atom   79 type  1   force =     0.00000586   -0.00000459    0.00000187
     atom   80 type  1   force =    -0.00000590   -0.00000390    0.00000022
     atom   81 type  1   force =     0.00000818   -0.00000519    0.00000530
     atom   82 type  1   force =     0.00000755    0.00000421    0.00000031
     atom   83 type  1   force =    -0.00000797   -0.00000019   -0.00000250
     atom   84 type  1   force =     0.00000446   -0.00000500    0.00000017
     atom   85 type  1   force =    -0.00000357    0.00000250    0.00000137
     atom   86 type  1   force =    -0.00000542   -0.00000616   -0.00000253
     atom   87 type  1   force =    -0.00000173    0.00000022   -0.00000199
     atom   88 type  1   force =    -0.00000191   -0.00000462   -0.00000533
     atom   89 type  1   force =     0.00000884   -0.00000507   -0.00000350
     atom   90 type  1   force =    -0.00000578   -0.00000342    0.00000005
     atom   91 type  1   force =     0.00000653    0.00000430   -0.00000551
     atom   92 type  1   force =     0.00000411   -0.00000111    0.00000045
     atom   93 type  1   force =     0.00000054   -0.00000257   -0.00000548
     atom   94 type  1   force =     0.00000659   -0.00000626   -0.00000445
     atom   95 type  1   force =     0.00000813    0.00000380   -0.00000607
     atom   96 type  1   force =    -0.00000630    0.00000296   -0.00000159
     atom   97 type  1   force =     0.00000726    0.00000199    0.00000307
     atom   98 type  1   force =    -0.00000266   -0.00000010    0.00000490
     atom   99 type  1   force =    -0.00000623    0.00000084    0.00000190
     atom  100 type  1   force =    -0.00000407   -0.00000515   -0.00000063
     atom  101 type  1   force =     0.00000385   -0.00000102   -0.00000224
     atom  102 type  1   force =     0.00000302   -0.00000297    0.00000093
     atom  103 type  1   force =    -0.00000075   -0.00000222    0.00000130
     atom  104 type  1   force =    -0.00000175    0.00000170   -0.00000086
     atom  105 type  1   force =    -0.00000155   -0.00000162   -0.00000053
     atom  106 type  1   force =    -0.00000591    0.00000139   -0.00000284
     atom  107 type  1   force =     0.00000168   -0.00000098   -0.00000322
     atom  108 type  1   force =     0.00000136   -0.00000428   -0.00000175
     atom  109 type  1   force =    -0.00000316    0.00000422    0.00000271
     atom  110 type  1   force =     0.00000829    0.00000476   -0.00000695
     atom  111 type  1   force =    -0.00000888    0.00000462   -0.00000052
     atom  112 type  1   force =    -0.00000298   -0.00000370    0.00000088
     atom  113 type  1   force =    -0.00000865    0.00000336    0.00000194
     atom  114 type  1   force =    -0.00000475    0.00000087    0.00000152
     atom  115 type  1   force =     0.00000008    0.00000515    0.00000221
     atom  116 type  1   force =     0.00000498   -0.00000470   -0.00000391
     atom  117 type  1   force =     0.00000639    0.00000621   -0.00000283
     atom  118 type  1   force =     0.00000151   -0.00000065   -0.00000109
     atom  119 type  1   force =    -0.00000772   -0.00000319   -0.00000084
     atom  120 type  1   force =    -0.00000610   -0.00000241    0.00000103
     atom  121 type  1   force =    -0.00000377   -0.00000458   -0.00000313
     atom  122 type  1   force =    -0.00000228   -0.00000405    0.00000086
     atom  123 type  1   force =    -0.00000773    0.00000577    0.00000360
     atom  124 type  1   force =     0.00000492   -0.00000346    0.00000348
     atom  125 type  1   force =    -0.00000783   -0.00000473   -0.00000219
     atom  126 type  1   force =     0.00000469   -0.00000395   -0.00000201
     atom  127 type  1   force =    -0.00000540   -0.00000118    0.00000341
     atom  128 type  1   force =     0.00000998    0.00000117   -0.00000636
     atom  129 type  1   force =     0.00000807   -0.00000162    0.00000160
     atom  130 type  1   force =     0.00000181   -0.00000080    0.00000050
     atom  131 type  1   force =     0.00000580   -0.00000571    0.00000032
     atom  132 type  1   force =    -0.00000788    0.00000100   -0.00000355
     atom  133 type  1   force =     0.00000803    0.00000603   -0.00000182
     atom  134 type  1   force =    -0.00000024   -0.00000536   -0.00000021
     atom  135 type  1   force =     0.00000658   -0.00000476   -0.00000169
     atom  136 type  1   force =     0.00000773    0.00000112   -0.00000113
     atom  137 type  1   force =     0.00000726    0.00000134   -0.00000240
     atom  138 type  1   force =     0.00000077    0.00000063   -0.00000681
     atom  139 type  1   force =     0.00000216    0.00000046   -0.00000556
     atom  140 type  1   force =     0.00001187    0.00000334   -0.00000109
     atom  141 type  1   force =    -0.00000797    0.00000449    0.00000485
     atom  142 type  1   force =    -0.00000062    0.00000100   -0.00000393
     atom  143 type  1   force =    -0.00000387    0.00000057   -0.00000043
     atom  144 type  1   force =     0.00000918    0.00000169   -0.00000146
     atom  145 type  1   force =    -0.00000312   -0.00000092   -0.00000245
     atom  146 type  1   force =     0.00000598    0.00000330   -0.00000631
     atom  147 type  1   force =    -0.00000140   -0.00000368    0.00000014
     atom  148 type  1   force =    -0.00000796    0.00000217    0.00000049
     atom  149 type  1   force =     0.00000682   -0.00000034    0.00000223
     atom  150 type  1   force =     0.00000538    0.00000328    0.00000318
     atom  151 type  1   force =     0.00000350    0.00000342   -0.00000292
     atom  152 type  1   force =     0.00000599   -0.00000416    0.00000090
     atom  153 type  1   force =    -0.00000171   -0.00000056    0.00000183
     atom  154 type  1   force =     0.00000971    0.00000610    0.00000424
     atom  155 type  1   force =     0.00000996    0.00000461    0.00000816
     atom  156 type  1   force =     0.00000208    0.00000703    0.00000453
     atom  157 type  1   force =     0.00000203   -0.00000137    0.00000181
     atom  158 type  1   force =    -0.00000554    0.00000024   -0.00000279
     atom  159 type  1   force =    -0.00000369    0.00000366    0.00000237
     atom  160 type  1   force =    -0.00000707    0.00000326    0.00000594
     atom  161 type  1   force =     0.00000397   -0.00000088    0.00000232
     atom  162 type  1   force =     0.00000376   -0.00000011    0.00000033
     atom  163 type  1   force =    -0.00000104   -0.00000197   -0.00000197
     atom  164 type  1   force =    -0.00000406   -0.00000025    0.00000145
     atom  165 type  1   force =    -0.00000217   -0.00000178    0.00000391
     atom  166 type  1   force =     0.00000065    0.00000053   -0.00000061
     atom  167 type  1   force =     0.00000705    0.00000069    0.00000731
     atom  168 type  1   force =     0.00000158    0.00000042    0.00000035
     atom  169 type  1   force =     0.00000864   -0.00000252   -0.00000735
     atom  170 type  1   force =    -0.00000618   -0.00000039    0.00000324
     atom  171 type  1   force =    -0.00000573    0.00000192    0.00000312
     atom  172 type  1   force =    -0.00000589    0.00000147    0.00000762
     atom  173 type  1   force =     0.00000694    0.00000587    0.00000055
     atom  174 type  1   force =    -0.00000662    0.00000226    0.00000239
     atom  175 type  1   force =    -0.00000131    0.00000553   -0.00000078
     atom  176 type  1   force =    -0.00000432   -0.00000151    0.00000353
     atom  177 type  1   force =    -0.00000756   -0.00000354    0.00000063
     atom  178 type  1   force =     0.00000338   -0.00000411   -0.00000165
     atom  179 type  1   force =     0.00000786    0.00000238    0.00000185
     atom  180 type  1   force =    -0.00000406   -0.00000041    0.00000268
     atom  181 type  1   force =     0.00000202   -0.00000377   -0.00000002
     atom  182 type  1   force =    -0.00000334   -0.00000503    0.00000100
     atom  183 type  1   force =     0.00000390    0.00000591   -0.00000485
     atom  184 type  1   force =    -0.00000467   -0.00000136   -0.00000171
     atom  185 type  1   force =     0.00000114    0.00000231   -0.00000153
     atom  186 type  1   force =    -0.00000620    0.00000344    0.00000354
     atom  187 type  1   force =     0.00000539    0.00000467    0.00000505
     atom  188 type  1   force =    -0.00000312   -0.00000353    0.00000137
     atom  189 type  1   force =    -0.00000548    0.00000115   -0.00000471
     atom  190 type  1   force =     0.00000676    0.00000582    0.00000048
     atom  191 type  1   force =     0.00000040   -0.00000495    0.00000171
     atom  192 type  1   force =     0.00000509   -0.00000588    0.00000100
     atom  193 type  1   force =    -0.00000399   -0.00000202   -0.00000201
     atom  194 type  1   force =     0.00000070   -0.00000571   -0.00000373
     atom  195 type  1   force =    -0.00000120   -0.00000590   -0.00000251
     atom  196 type  1   force =     0.00000711    0.00000523   -0.00000720
     atom  197 type  1   force =     0.00000528   -0.00000494    0.00000347
     atom  198 type  1   force =    -0.00000713   -0.00000081    0.00000033
     atom  199 type  1   force =     0.00000951    0.00000414    0.00000746
     atom  200 type  1   force =     0.00000489   -0.00000712    0.00000212
     atom  201 type  1   force =     0.00000058    0.00000065    0.00000069
     atom  202 type  1   force =    -0.00000468   -0.00000233   -0.00000201
     atom  203 type  1   force =    -0.00000562    0.00000185    0.00000455
     atom  204 type  1   force =     0.00000391    0.00000494    0.00000225
     atom  205 type  1   force =     0.00000894    0.00000500    0.00000302
     atom  206 type  1   force =    -0.00000519   -0.00000456   -0.00000197
     atom  207 type  1   force =    -0.00000349   -0.00000119   -0.00000011
     atom  208 type  1   force =    -0.00000370   -0.00000111   -0.00000610
     atom  209 type  1   force =    -0.00000197   -0.00000321    0.00000196
     atom  210 type  1   force =     0.00000786    0.00000316    0.00000887
     atom  211 type  1   force =    -0.00000431    0.00000415    0.00000431
     atom  212 type  1   force =    -0.00000269   -0.00000819   -0.00000288
     atom  213 type  1   force =    -0.00000205    0.00000603    0.00000313
     atom  214 type  1   force =     0.00000680    0.00000349   -0.00000170
     atom  215 type  1   force =    -0.00000519   -0.00000487   -0.00000098
     atom  216 type  1   force =     0.00000860   -0.00000155    0.00000040
     atom  217 type  2   force =     0.00000173   -0.00000073    0.00000031
     atom  218 type  2   force =     0.00000090    0.00000156    0.00000024
     atom  219 type  2   force =     0.00000189    0.00000038    0.00000126
     atom  220 type  2   force =    -0.00000081   -0.00000066    0.00000113
     atom  221 type  2   force =     0.00000225    0.00000033   -0.00000183
     atom  222 type  2   force =     0.00000185    0.00000078   -0.00000170
     atom  223 type  2   force =     0.00000016    0.00000106    0.00000101
     atom  224 type  2   force =    -0.00000072    0.00000099    0.00000147
     atom  225 type  2   force =    -0.00000027    0.00000052    0.00000033
     atom  226 type  2   force =     0.00000190    0.00000132    0.00000199
     atom  227 type  2   force =     0.00000178    0.00000184    0.00000079
     atom  228 type  2   force =     0.00000094   -0.00000222    0.00000070
     atom  229 type  2   force =     0.00000219   -0.00000133    0.00000047
     atom  230 type  2   force =    -0.00000233   -0.00000128   -0.00000104
     atom  231 type  2   force =    -0.00000128   -0.00000132   -0.00000062
     atom  232 type  2   force =    -0.00000130   -0.00000028    0.00000096
     atom  233 type  2   force =     0.00000212   -0.00000012   -0.00000137

     Total force =     0.155889     Total SCF correction =     0.000107


     Computing stress (Cartesian axis) and pressure

          total   stress  (Ry/bohr**3)                   (kbar)     P=   12.24
   0.00003692  -0.00000606   0.00003641          5.43     -0.89      5.36
  -0.00000606   0.00010185   0.00001994         -0.89     14.98      2.93
   0.00003641   0.00001994   0.00011089          5.36      2.93     16.31

     kinetic stress (kbar)   2281.57      1.73      5.70
                                1.73   2289.02      0.08
                                5.70      0.08   2293.21

     local   stress (kbar)  -1333.26      4.50    -14.89
                                4.50  -1339.61    -30.37
                              -14.89    -30.37  -1311.46

     nonloc. stress (kbar)   2539.88      2.95     -1.61
                                2.95   2534.65     -2.43
                               -1.61     -2.43   2541.94

     hartree stress (kbar)    258.90     -3.63     10.50
                               -3.63    271.88     15.66
                               10.50     15.66    247.48

     exc-cor stress (kbar)   -805.76     -0.05     -0.01
                               -0.05   -805.73      0.08
                               -0.01      0.08   -805.69

     corecor stress (kbar)      0.00      0.00      0.00
                                0.00      0.00      0.00
                                0.00      0.00      0.00

     ewald   stress (kbar)  -2935.90     -6.39      5.67
                               -6.39  -2935.23     19.91
                                5.67     19.91  -2949.16

     hubbard stress (kbar)      0.00      0.00      0.00
                                0.00      0.00      0.00
                                0.00      0.00      0.00

     london  stress (kbar)      0.00      0.00      0.00
                                0.00      0.00      0.00
                                0.00      0.00      0.00

     DFT-D3  stress (kbar)      0.00      0.00      0.00
                                0.00      0.00      0.00
                                0.00      0.00      0.00

     XDM     stress (kbar)      0.00      0.00      0.00
                                0.00      0.00      0.00
                                0.00      0.00      0.00

     dft-nl  stress (kbar)      0.00      0.00      0.00
                                0.00      0.00      0.00
                                0.00      0.00      0.00

     TS-vdW  stress (kbar)      0.00      0.00      0.00
                                0.00      0.00      0.00
                                0.00      0.00      0.00



     Writing output data file amorph_optimize2.save

     init_run     :    276.03s CPU    280.43s WALL (       1 calls)
     electrons    :  13736.47s CPU  14018.70s WALL (       1 calls)
     forces       :     93.84s CPU     94.52s WALL (       1 calls)
     stress       :    586.27s CPU    590.44s WALL (       1 calls)

     Called by init_run:
     wfcinit      :    261.31s CPU    265.61s WALL (       1 calls)
     wfcinit:atom :      0.73s CPU      1.47s WALL (       8 calls)
     wfcinit:wfcr :    248.84s CPU    251.49s WALL (       8 calls)
     potinit      :      6.04s CPU      6.08s WALL (       1 calls)

     Called by electrons:
     c_bands      :  12578.84s CPU  12845.80s WALL (      28 calls)
     sum_band     :   1147.45s CPU   1158.93s WALL (      28 calls)
     v_of_rho     :      8.33s CPU      8.41s WALL (      28 calls)
     v_h          :      0.54s CPU      0.55s WALL (      28 calls)
     v_xc         :      7.78s CPU      7.86s WALL (      28 calls)
     mix_rho      :      1.77s CPU      2.03s WALL (      28 calls)

     Called by c_bands:
     init_us_2    :     33.68s CPU     36.14s WALL (     472 calls)
     cegterg      :  12497.13s CPU  12737.23s WALL (     224 calls)

     Called by sum_band:

     Called by *egterg:
     h_psi        :   7178.97s CPU   7229.29s WALL (    1054 calls)
     g_psi        :     11.75s CPU     11.82s WALL (     822 calls)
     cdiaghg      :   1978.73s CPU   1986.54s WALL (    1038 calls)
     cegterg:over :   1449.07s CPU   1457.80s WALL (     822 calls)
     cegterg:upda :    850.72s CPU    860.91s WALL (     822 calls)
     cegterg:last :    577.70s CPU    583.54s WALL (     224 calls)

     Called by h_psi:
     h_psi:pot    :   7150.67s CPU   7197.77s WALL (    1054 calls)
     h_psi:calbec :   1266.36s CPU   1278.91s WALL (    1054 calls)
     vloc_psi     :   4664.79s CPU   4693.38s WALL (    1054 calls)
     add_vuspsi   :   1219.51s CPU   1225.48s WALL (    1054 calls)

     General routines
     calbec       :   1415.20s CPU   1428.22s WALL (    1094 calls)
     fft          :      5.07s CPU      5.11s WALL (     317 calls)
     fftw         :   5146.93s CPU   5176.08s WALL (  666692 calls)

     Parallel routines
     fft_scatt_xy :    835.02s CPU    839.59s WALL (  667009 calls)
     fft_scatt_yz :   1070.28s CPU   1077.92s WALL (  667009 calls)

     PWSCF        :     4h 4m CPU        4h10m WALL


   This run was terminated on:  12:24:19   7Nov2020            

=------------------------------------------------------------------------------=
   JOB DONE.
=------------------------------------------------------------------------------=
