
     Program PWSCF v.6.2 (svn rev. 14038) starts on  7Nov2020 at  8:16:21 

     This program is part of the open-source Quantum ESPRESSO suite
     for quantum simulation of materials; please cite
         "P. Giannozzi et al., J. Phys.:Condens. Matter 21 395502 (2009);
         "P. Giannozzi et al., J. Phys.:Condens. Matter 29 465901 (2017);
          URL http://www.quantum-espresso.org", 
     in publications or presentations arising from this work. More details at
     http://www.quantum-espresso.org/quote

     Parallel version (MPI), running on     8 processors

     MPI processes distributed on     1 nodes
     R & G space division:  proc/nbgrp/npool/nimage =       8
     Waiting for input...
     Reading input from standard input
Warning: card &IONS ignored
Warning: card / ignored

     Current dimensions of program PWSCF are:
     Max number of different atomic species (ntypx) = 10
     Max number of k-points (npk) =  40000
     Max angular momentum in pseudopotentials (lmaxx) =  3

     Subspace diagonalization in iterative solution of the eigenvalue problem:
     a serial algorithm will be used


     Parallelization info
     --------------------
     sticks:   dense  smooth     PW     G-vecs:    dense   smooth      PW
     Min        1612    1612    423               136542   136542   18473
     Max        1613    1613    424               136543   136543   18476
     Sum       12897   12897   3391              1092343  1092343  147795



     bravais-lattice index     =            0
     lattice parameter (alat)  =      31.1806  a.u.
     unit-cell volume          =   29706.2017 (a.u.)^3
     number of atoms/cell      =          238
     number of atomic types    =            2
     number of electrons       =       886.00
     number of Kohn-Sham states=          532
     kinetic-energy cutoff     =      42.0000  Ry
     charge density cutoff     =     168.0000  Ry
     convergence threshold     =      1.0E-08
     mixing beta               =       0.3000
     number of iterations used =            8  plain     mixing
     Exchange-correlation      = SLA-PW-PBX-PBC ( 1  4  3  4 0 0)

     celldm(1)=  31.180594  celldm(2)=   0.000000  celldm(3)=   0.000000
     celldm(4)=   0.000000  celldm(5)=   0.000000  celldm(6)=   0.000000

     crystal axes: (cart. coord. in units of alat)
               a(1) = (   1.000000   0.000000   0.000000 )  
               a(2) = (   0.015474   0.992506   0.000000 )  
               a(3) = (   0.017393   0.004347   0.987327 )  

     reciprocal axes: (cart. coord. in units 2 pi/alat)
               b(1) = (  1.000000 -0.015591 -0.017547 )  
               b(2) = (  0.000000  1.007551 -0.004436 )  
               b(3) = (  0.000000  0.000000  1.012836 )  


     PseudoPot. # 1 for Si read from file:
     ./Si.pbe-hgh.UPF
     MD5 check sum: 9a9f0f6e09139bfdb36b03ff6bc35900
     Pseudo is Norm-conserving, Zval =  4.0
     Generated in analytical, separable form
     Using radial grid of 1141 points,  3 beta functions with: 
                l(1) =   0
                l(2) =   0
                l(3) =   1

     PseudoPot. # 2 for H  read from file:
     ./H.pbe-hgh.UPF
     MD5 check sum: 5f350582108a937bec95f27f5610ab08
     Pseudo is Norm-conserving, Zval =  1.0
     Generated in analytical, separable form
     Using radial grid of  929 points,  0 beta functions with: 

     atomic species   valence    mass     pseudopotential
        Si             4.00    28.08000     Si( 1.00)
        H              1.00     1.00784     H ( 1.00)

     No symmetry found


                                    s                        frac. trans.

      isym =  1     identity                                     

 cryst.   s( 1) = (     1          0          0      )
                  (     0          1          0      )
                  (     0          0          1      )

 cart.    s( 1) = (  1.0000000 -0.0000000  0.0000000 )
                  (  0.0000000  1.0000000  0.0000000 )
                  (  0.0000000  0.0000000  1.0000000 )


   Cartesian axes

     site n.     atom                  positions (alat units)
         1           Si  tau(   1) = (   0.5063522   0.2474067   0.8877161  )
         2           Si  tau(   2) = (   0.4687817   0.9200604   0.8526907  )
         3           Si  tau(   3) = (   0.7476818   0.1989093   0.7744096  )
         4           Si  tau(   4) = (   0.6645455   0.2230877   0.1794821  )
         5           Si  tau(   5) = (   0.1215106   0.7961626   0.6134240  )
         6           Si  tau(   6) = (   0.0924168   0.8182911   0.9505812  )
         7           Si  tau(   7) = (   0.4395380   0.9104147   0.3178273  )
         8           Si  tau(   8) = (   0.1076376   0.3377625   0.3705634  )
         9           Si  tau(   9) = (   0.9541095   0.9483845   0.6506748  )
        10           Si  tau(  10) = (   0.3366385   0.7548395   0.1670349  )
        11           Si  tau(  11) = (   0.0354900   0.3405246   0.4925278  )
        12           Si  tau(  12) = (   0.0330331   0.5613181   0.7915950  )
        13           Si  tau(  13) = (   0.6221822   0.1869384   0.7069357  )
        14           Si  tau(  14) = (   0.8981592   0.7698560   0.3042990  )
        15           Si  tau(  15) = (   0.8202854   0.3776685   0.1736056  )
        16           Si  tau(  16) = (   0.2899359   0.7301373   0.9599598  )
        17           Si  tau(  17) = (   0.1117412   0.6192598   0.2433671  )
        18           Si  tau(  18) = (   0.0142534   0.4221396   0.2991570  )
        19           Si  tau(  19) = (   0.3215841   0.1024162   0.2014176  )
        20           Si  tau(  20) = (   0.7064741   0.3816340   0.3578990  )
        21           Si  tau(  21) = (   0.8346665   0.5520706   0.3460550  )
        22           Si  tau(  22) = (   0.6677664   0.3958611   0.7732682  )
        23           Si  tau(  23) = (   0.5587941   0.0255322   0.8233800  )
        24           Si  tau(  24) = (   0.4859639   0.2653524   0.3160521  )
        25           Si  tau(  25) = (   0.8979405   0.8589652   0.0860913  )
        26           Si  tau(  26) = (   0.7921702   0.9952371   0.7395905  )
        27           Si  tau(  27) = (   0.6564599   0.9582101   0.7227783  )
        28           Si  tau(  28) = (   0.8456037   0.2001866   0.6711401  )
        29           Si  tau(  29) = (   0.9941011   0.4735996   0.5183938  )
        30           Si  tau(  30) = (   0.6416323   0.8221507   0.7449300  )
        31           Si  tau(  31) = (   0.7550060   0.4694457   0.2597577  )
        32           Si  tau(  32) = (   0.6088686   0.1910507   0.9687589  )
        33           Si  tau(  33) = (   0.5944753   0.3965786   0.0072003  )
        34           Si  tau(  34) = (   0.9919412   0.5447483   0.9259691  )
        35           Si  tau(  35) = (   0.5825075   0.6929367   0.5554245  )
        36           Si  tau(  36) = (   0.1904241   0.3498086   0.8167313  )
        37           Si  tau(  37) = (   0.6580159   0.1182131   0.5853839  )
        38           Si  tau(  38) = (   0.7893437   0.9442600   0.1216752  )
        39           Si  tau(  39) = (   0.1262348   0.0399370   0.8451002  )
        40           Si  tau(  40) = (   0.3968670   0.7462292   0.0348655  )
        41           Si  tau(  41) = (   0.6198702   0.0075176   0.2649451  )
        42           Si  tau(  42) = (   0.7576828   0.6252653   0.6948942  )
        43           Si  tau(  43) = (   0.5989517   0.6577463   0.9418048  )
        44           Si  tau(  44) = (   0.0973132   0.9659451   0.3554069  )
        45           Si  tau(  45) = (   0.3555206   0.1073855   0.8055646  )
        46           Si  tau(  46) = (   0.8203182   0.0759698   0.1667367  )
        47           Si  tau(  47) = (   0.1066885   0.3832985   0.7003541  )
        48           Si  tau(  48) = (   0.2858097   0.9527321   0.5346689  )
        49           Si  tau(  49) = (   0.0850053   0.5688196   0.5722712  )
        50           Si  tau(  50) = (   0.4314721   0.2651612   0.5458435  )
        51           Si  tau(  51) = (   0.6576270   0.0651506   0.9215883  )
        52           Si  tau(  52) = (   0.0229702   0.3266483   0.0276666  )
        53           Si  tau(  53) = (   0.1094434   0.2090901   0.3054354  )
        54           Si  tau(  54) = (   0.9062637   0.1245159   0.9067212  )
        55           Si  tau(  55) = (   0.6749908   0.4415269   0.4828185  )
        56           Si  tau(  56) = (   0.2502608   0.5434556   0.2538288  )
        57           Si  tau(  57) = (   0.4554287   0.0769050   0.4566948  )
        58           Si  tau(  58) = (   0.4026021   0.5168443   0.0454859  )
        59           Si  tau(  59) = (   0.5527344   0.6060114   0.3622926  )
        60           Si  tau(  60) = (   0.9961960   0.2089075   0.1000744  )
        61           Si  tau(  61) = (   0.9793716   0.4390491   0.7345058  )
        62           Si  tau(  62) = (   0.0893776   0.2785588   0.6098212  )
        63           Si  tau(  63) = (   0.5003532   0.3630480   0.6154875  )
        64           Si  tau(  64) = (   0.8486826   0.8245008   0.8614532  )
        65           Si  tau(  65) = (   0.1945807   0.6256694   0.0357390  )
        66           Si  tau(  66) = (   0.1748526   0.1416772   0.9382554  )
        67           Si  tau(  67) = (   0.4457436   0.8478618   0.1913034  )
        68           Si  tau(  68) = (   0.8688833   0.0795141   0.3930883  )
        69           Si  tau(  69) = (   0.8772964   0.9383763   0.4318349  )
        70           Si  tau(  70) = (   0.6705424   0.5363804   0.7683790  )
        71           Si  tau(  71) = (   0.2524498   0.6923525   0.7482444  )
        72           Si  tau(  72) = (   0.6063020   0.8947034   0.4821807  )
        73           Si  tau(  73) = (   0.1532528   0.0217223   0.5932075  )
        74           Si  tau(  74) = (   0.0870748   0.1102232   0.4076829  )
        75           Si  tau(  75) = (   0.9310834   0.4051089   0.9605236  )
        76           Si  tau(  76) = (   0.9149115   0.5729741   0.1421000  )
        77           Si  tau(  77) = (   0.2398674   0.5320239   0.4026179  )
        78           Si  tau(  78) = (   0.9888064   0.0087096   0.8819432  )
        79           Si  tau(  79) = (   0.2728474   0.8412118   0.4460149  )
        80           Si  tau(  80) = (   0.7951657   0.8543605   0.3456729  )
        81           Si  tau(  81) = (   0.3652964   0.5706892   0.4482196  )
        82           Si  tau(  82) = (   0.4744095   0.4001872   0.0858435  )
        83           Si  tau(  83) = (   0.7658293   0.3219909   0.8422576  )
        84           Si  tau(  84) = (   0.4080258   0.8117952   0.4160959  )
        85           Si  tau(  85) = (   0.7889769   0.0753278   0.6167098  )
        86           Si  tau(  86) = (   0.6613295   0.6647055   0.4408245  )
        87           Si  tau(  87) = (   0.9542783   0.9021626   0.7886715  )
        88           Si  tau(  88) = (   1.0049859   0.9261315   0.0162915  )
        89           Si  tau(  89) = (   0.3164175   0.0306764   0.0739310  )
        90           Si  tau(  90) = (   0.6880975   0.7352983   0.6427644  )
        91           Si  tau(  91) = (   0.3607714   0.5020209   0.9034255  )
        92           Si  tau(  92) = (   0.3515400   0.9654212   0.7713715  )
        93           Si  tau(  93) = (   0.1146246   0.1328409   0.0872213  )
        94           Si  tau(  94) = (   0.2236175   0.9273355   0.0868920  )
        95           Si  tau(  95) = (   0.3105132   0.2910071   0.7550599  )
        96           Si  tau(  96) = (   0.7060835   0.2971285   0.9725245  )
        97           Si  tau(  97) = (   0.3142054   0.0608557   0.4410160  )
        98           Si  tau(  98) = (   0.0656721   0.9170563   0.5698039  )
        99           Si  tau(  99) = (   0.9419449   0.0994773   0.6206710  )
       100           Si  tau( 100) = (   0.9740216   0.8372515   0.2067738  )
       101           Si  tau( 101) = (   0.3591037   0.6972680   0.8430850  )
       102           Si  tau( 102) = (   0.1711163   0.8103860   0.7468315  )
       103           Si  tau( 103) = (   0.0531474   0.6373501   0.3727503  )
       104           Si  tau( 104) = (   0.7918212   0.7927708   0.5612507  )
       105           Si  tau( 105) = (   0.9053393   0.7031024   0.5419909  )
       106           Si  tau( 106) = (   0.6241716   0.3201313   0.6640126  )
       107           Si  tau( 107) = (   0.0825259   0.7100350   0.0577505  )
       108           Si  tau( 108) = (   0.0912644   0.7546512   0.1885152  )
       109           Si  tau( 109) = (   0.8384668   0.9293811   0.5693270  )
       110           Si  tau( 110) = (   0.3025553   0.3699488   0.9428050  )
       111           Si  tau( 111) = (   0.7734839   0.2677553   0.0942288  )
       112           Si  tau( 112) = (   0.9745955   0.7466370   0.4201163  )
       113           Si  tau( 113) = (   0.8353786   0.4723363   0.0725220  )
       114           Si  tau( 114) = (   0.6800792   0.5544537   0.1711313  )
       115           Si  tau( 115) = (   0.6114400   0.9861704   0.5923386  )
       116           Si  tau( 116) = (   0.2282120   0.8570053   0.9522744  )
       117           Si  tau( 117) = (   0.2300373   0.4039018   0.0799076  )
       118           Si  tau( 118) = (   0.0487998   0.7971642   0.8156709  )
       119           Si  tau( 119) = (   0.8510653   0.6518138   0.2473914  )
       120           Si  tau( 120) = (   0.8578990   0.7465769   0.0031562  )
       121           Si  tau( 121) = (   0.5348709   0.5708668   0.7491597  )
       122           Si  tau( 122) = (   0.0292477   0.9673266   0.2325154  )
       123           Si  tau( 123) = (   0.9125584   0.3264936   0.2664301  )
       124           Si  tau( 124) = (   0.1567125   0.6251640   0.4655906  )
       125           Si  tau( 125) = (   0.7596637   0.5562442   0.4693888  )
       126           Si  tau( 126) = (   0.4515390   0.9451534   0.0856187  )
       127           Si  tau( 127) = (   0.6982966   0.5646118   0.9062364  )
       128           Si  tau( 128) = (   0.3846479   0.2528513   0.9642991  )
       129           Si  tau( 129) = (   0.3114641   0.0067957   0.3104865  )
       130           Si  tau( 130) = (   0.5455672   0.5838693   0.2152658  )
       131           Si  tau( 131) = (   0.3755866   0.5808863   0.5862014  )
       132           Si  tau( 132) = (   0.8686583   0.1613751   0.0603138  )
       133           Si  tau( 133) = (   0.2762525   0.5342875   0.1117308  )
       134           Si  tau( 134) = (   0.5024081   0.8050943   0.5225988  )
       135           Si  tau( 135) = (   0.2156287   0.8286115   0.2035690  )
       136           Si  tau( 136) = (   0.1767613   0.4941179   0.6498840  )
       137           Si  tau( 137) = (   0.1746395   0.5734593   0.7647288  )
       138           Si  tau( 138) = (   0.1005519   0.2660420   0.8992234  )
       139           Si  tau( 139) = (   0.4584163   0.4673319   0.8087507  )
       140           Si  tau( 140) = (   0.3921787   0.2866653   0.1110950  )
       141           Si  tau( 141) = (   0.8218441   0.2939198   0.3699582  )
       142           Si  tau( 142) = (   0.5564913   0.3792998   0.8622322  )
       143           Si  tau( 143) = (   0.9598588   0.6485059   0.0303240  )
       144           Si  tau( 144) = (   0.3087550   0.4560231   0.6116833  )
       145           Si  tau( 145) = (   0.0314560   0.1809631   0.6971522  )
       146           Si  tau( 146) = (   0.3952503   0.3955093   0.7057558  )
       147           Si  tau( 147) = (   0.5046874   0.6806015   0.8326302  )
       148           Si  tau( 148) = (   0.7050867   0.3208566   0.5494502  )
       149           Si  tau( 149) = (   0.2018423   0.1847021   0.1947136  )
       150           Si  tau( 150) = (   0.5070571   0.4507523   0.2111783  )
       151           Si  tau( 151) = (   0.4984103   0.1516468   0.7813208  )
       152           Si  tau( 152) = (   0.2218964   0.9049790   0.3273550  )
       153           Si  tau( 153) = (   0.8460148   0.6913417   0.7876091  )
       154           Si  tau( 154) = (   0.3036226   0.3376414   0.5234213  )
       155           Si  tau( 155) = (   0.4314774   0.3966573   0.3147636  )
       156           Si  tau( 156) = (   0.5102671   0.2066959   0.4428939  )
       157           Si  tau( 157) = (   0.0231864   0.6922652   0.6222566  )
       158           Si  tau( 158) = (   0.9075952   0.3506046   0.8270844  )
       159           Si  tau( 159) = (   0.0362204   0.5088367   0.1872761  )
       160           Si  tau( 160) = (   0.7575646   0.1663549   0.3769297  )
       161           Si  tau( 161) = (   0.3812163   0.9374183   0.6366992  )
       162           Si  tau( 162) = (   0.5104650   0.6096599   0.0701508  )
       163           Si  tau( 163) = (   0.5514735   0.0207537   0.1391647  )
       164           Si  tau( 164) = (   0.9676821   0.5220616   0.3878574  )
       165           Si  tau( 165) = (   1.0127130   0.8871587   0.4401018  )
       166           Si  tau( 166) = (   0.1459315   0.0986173   0.7158996  )
       167           Si  tau( 167) = (   0.4739400   0.4901343   0.4114328  )
       168           Si  tau( 168) = (   0.9828750   0.6865422   0.7567759  )
       169           Si  tau( 169) = (   0.3172230   0.1284686   0.9444894  )
       170           Si  tau( 170) = (   0.9235256   0.0810628   0.2611143  )
       171           Si  tau( 171) = (   0.6953844   0.4948401   0.0424868  )
       172           Si  tau( 172) = (   0.9627157   0.1366424   0.4808952  )
       173           Si  tau( 173) = (   0.4283203   0.1637223   0.6527413  )
       174           Si  tau( 174) = (   0.7121235   0.1153500   0.2538347  )
       175           Si  tau( 175) = (   0.0951785   0.4342939   0.0804969  )
       176           Si  tau( 176) = (   0.8361487   0.5897627   0.8877142  )
       177           Si  tau( 177) = (   0.7430427   0.6810888   0.1608266  )
       178           Si  tau( 178) = (   0.2278270   0.9185581   0.8241234  )
       179           Si  tau( 179) = (   0.4410720   0.1902941   0.2010681  )
       180           Si  tau( 180) = (   0.7055996   0.8019518   0.8686094  )
       181           Si  tau( 181) = (   0.5096159   0.8494823   0.9766752  )
       182           Si  tau( 182) = (   0.6480046   0.7874865   0.1617438  )
       183           Si  tau( 183) = (   0.1329441   0.5270736   0.9608731  )
       184           Si  tau( 184) = (   0.8970251   0.4496867   0.6181701  )
       185           Si  tau( 185) = (   0.5541765   0.1608213   0.1173487  )
       186           Si  tau( 186) = (   0.9844672   0.2078979   0.2388925  )
       187           Si  tau( 187) = (   0.1950878   0.1214564   0.4971880  )
       188           Si  tau( 188) = (   0.6339392   0.8298939   0.0139972  )
       189           Si  tau( 189) = (   0.7795673   0.0875850   0.8516906  )
       190           Si  tau( 190) = (   0.2194639   0.2351987   0.5779296  )
       191           Si  tau( 191) = (   0.4248035   0.8034036   0.6417504  )
       192           Si  tau( 192) = (   0.4299552   0.6772313   0.3852291  )
       193           Si  tau( 193) = (   0.7101440   0.8013406   0.4441459  )
       194           Si  tau( 194) = (   0.0969146   0.9892560   0.1089920  )
       195           Si  tau( 195) = (   0.5745341   0.7239084   0.2717192  )
       196           Si  tau( 196) = (   0.2222056   0.4836033   0.8620101  )
       197           Si  tau( 197) = (   0.2176636   0.7393475   0.5252518  )
       198           Si  tau( 198) = (   0.8408151   0.3163315   0.5888287  )
       199           Si  tau( 199) = (   0.2947893   0.4029137   0.2820140  )
       200           Si  tau( 200) = (   0.3177083   0.7046121   0.6229458  )
       201           Si  tau( 201) = (   0.5494135   0.9758677   0.3776099  )
       202           Si  tau( 202) = (   0.6699724   0.9634285   0.0439307  )
       203           Si  tau( 203) = (   0.9142679   0.2723593   0.4772035  )
       204           Si  tau( 204) = (   0.4633820   0.0387453   0.5940507  )
       205           Si  tau( 205) = (   0.2684289   0.3114624   0.1758695  )
       206           Si  tau( 206) = (   0.8386848   0.5788791   0.5874849  )
       207           Si  tau( 207) = (   0.5437462   0.4671184   0.5300847  )
       208           Si  tau( 208) = (   0.9796147   0.2260096   0.8271466  )
       209           Si  tau( 209) = (   0.5038856   0.8027209   0.7632923  )
       210           Si  tau( 210) = (   0.2330826   0.3902537   0.4076572  )
       211           Si  tau( 211) = (   0.6554021   0.2054859   0.4748606  )
       212           Si  tau( 212) = (   0.5149236   0.5811452   0.6093957  )
       213           Si  tau( 213) = (   0.6153556   0.3085982   0.2789267  )
       214           Si  tau( 214) = (   0.2772528   0.1637769   0.6917575  )
       215           Si  tau( 215) = (   0.7183243   0.8915859   0.2319378  )
       216           Si  tau( 216) = (   0.3457921   0.6522598   0.2704663  )
       217           H   tau( 217) = (   0.2703307   0.6962987   0.3246655  )
       218           H   tau( 218) = (   0.8445941   0.5190083   0.8251147  )
       219           H   tau( 219) = (   0.6561357   0.7181671   0.9828362  )
       220           H   tau( 220) = (   0.8332355   0.9060709   0.9153139  )
       221           H   tau( 221) = (   0.3589470   0.2578770   0.8260329  )
       222           H   tau( 222) = (   0.5877113   0.3850255   0.2246770  )
       223           H   tau( 223) = (   0.4247128   0.6123191   0.2223874  )
       224           H   tau( 224) = (   0.3014950   0.0895531   0.6358166  )
       225           H   tau( 225) = (   0.0909662   0.3620766   0.8628572  )
       226           H   tau( 226) = (   0.8105607   0.6837786   0.9636376  )
       227           H   tau( 227) = (   0.6932665   0.7080418   0.8760193  )
       228           H   tau( 228) = (   0.7966328   0.7002415   0.0831214  )
       229           H   tau( 229) = (   0.7385623   0.6456149   0.5150537  )
       230           H   tau( 230) = (   0.2448937   0.7580535   0.2583942  )
       231           H   tau( 231) = (   0.4281027   0.6635024   0.0079321  )
       232           H   tau( 232) = (   0.4815851   0.6944526   0.0976305  )
       233           H   tau( 233) = (   0.5408893   0.8380750   0.1911504  )
       234           H   tau( 234) = (   0.4906915   0.7513968   0.2374540  )
       235           H   tau( 235) = (   0.3750413   0.7882508   0.8265671  )
       236           H   tau( 236) = (   0.4245681   0.9813801   0.9150562  )
       237           H   tau( 237) = (   0.4625730   0.0249674   0.1842865  )
       238           H   tau( 238) = (   0.8455316   0.3382267   0.0091398  )

   Crystallographic axes

     site n.     atom                  positions (cryst. coord.)
         1           Si  tau(   1) = (  0.4869180  0.2453370  0.8991110  )
         2           Si  tau(   2) = (  0.4394750  0.9232250  0.8636360  )
         3           Si  tau(   3) = (  0.7309920  0.1969760  0.7843500  )
         4           Si  tau(   4) = (  0.6579180  0.2239760  0.1817860  )
         5           Si  tau(   5) = (  0.0983340  0.7994530  0.6212980  )
         6           Si  tau(   6) = (  0.0629790  0.8202530  0.9627830  )
         7           Si  tau(   7) = (  0.4197670  0.9158790  0.3219070  )
         8           Si  tau(   8) = (  0.0958693  0.3386690  0.3753200  )
         9           Si  tau(   9) = (  0.9279060  0.9526590  0.6590270  )
        10           Si  tau(  10) = (  0.3219390  0.7597980  0.1691790  )
        11           Si  tau(  11) = (  0.0215385  0.3409110  0.4988500  )
        12           Si  tau(  12) = (  0.0103915  0.5620450  0.8017560  )
        13           Si  tau(  13) = (  0.6068630  0.1852140  0.7160100  )
        14           Si  tau(  14) = (  0.8808170  0.7743190  0.3082050  )
        15           Si  tau(  15) = (  0.8113510  0.3797500  0.1758340  )
        16           Si  tau(  16) = (  0.2617080  0.7313920  0.9722820  )
        17           Si  tau(  17) = (  0.0978161  0.6228560  0.2464910  )
        18           Si  tau(  18) = (  0.0024226  0.4240000  0.3029970  )
        19           Si  tau(  19) = (  0.3164530  0.1022960  0.2040030  )
        20           Si  tau(  20) = (  0.6942440  0.3829280  0.3624930  )
        21           Si  tau(  21) = (  0.8199870  0.5547040  0.3504970  )
        22           Si  tau(  22) = (  0.6480260  0.3954200  0.7831940  )
        23           Si  tau(  23) = (  0.5439480  0.0220726  0.8339490  )
        24           Si  tau(  24) = (  0.4762810  0.2659540  0.3201090  )
        25           Si  tau(  25) = (  0.8830380  0.8650690  0.0871964  )
        26           Si  tau(  26) = (  0.7636760  0.9994710  0.7490840  )
        27           Si  tau(  27) = (  0.6288380  0.9622390  0.7320560  )
        28           Si  tau(  28) = (  0.8307060  0.1987210  0.6797550  )
        29           Si  tau(  29) = (  0.9776210  0.4748760  0.5250480  )
        30           Si  tau(  30) = (  0.6157430  0.8250540  0.7544920  )
        31           Si  tau(  31) = (  0.7431290  0.4718380  0.2630920  )
        32           Si  tau(  32) = (  0.5888910  0.1881960  0.9811940  )
        33           Si  tau(  33) = (  0.5881660  0.3995410  0.0072927  )
        34           Si  tau(  34) = (  0.9672000  0.5447540  0.9378550  )
        35           Si  tau(  35) = (  0.5619580  0.6957050  0.5625540  )
        36           Si  tau(  36) = (  0.1706390  0.3488270  0.8272150  )
        37           Si  tau(  37) = (  0.6459010  0.1165090  0.5928980  )
        38           Si  tau(  38) = (  0.7724870  0.9508500  0.1232370  )
        39           Si  tau(  39) = (  0.1107830  0.0364898  0.8559480  )
        40           Si  tau(  40) = (  0.3846210  0.7517090  0.0353130  )
        41           Si  tau(  41) = (  0.6151040  0.0063991  0.2683460  )
        42           Si  tau(  42) = (  0.7357410  0.6269040  0.7038140  )
        43           Si  tau(  43) = (  0.5721710  0.6585350  0.9538940  )
        44           Si  tau(  44) = (  0.0760170  0.9716620  0.3599690  )
        45           Si  tau(  45) = (  0.3397110  0.1046230  0.8159050  )
        46           Si  tau(  46) = (  0.8162080  0.0758038  0.1688770  )
        47           Si  tau(  47) = (  0.0884234  0.3830860  0.7093440  )
        48           Si  tau(  48) = (  0.2615740  0.9575540  0.5415320  )
        49           Si  tau(  49) = (  0.0660953  0.5705760  0.5796170  )
        50           Si  tau(  50) = (  0.4177600  0.2647420  0.5528500  )
        51           Si  tau(  51) = (  0.6404400  0.0615545  0.9334180  )
        52           Si  tau(  52) = (  0.0173921  0.3289920  0.0280217  )
        53           Si  tau(  53) = (  0.1008240  0.2093140  0.3093560  )
        54           Si  tau(  54) = (  0.8884120  0.1214340  0.9183600  )
        55           Si  tau(  55) = (  0.6596350  0.4427190  0.4890160  )
        56           Si  tau(  56) = (  0.2373340  0.5464330  0.2570870  )
        57           Si  tau(  57) = (  0.4462160  0.0754598  0.4625570  )
        58           Si  tau(  58) = (  0.3937460  0.5205450  0.0460698  )
        59           Si  tau(  59) = (  0.5369290  0.6089800  0.3669430  )
        60           Si  tau(  60) = (  0.9911830  0.2100410  0.1013590  )
        61           Si  tau(  61) = (  0.9596380  0.4391060  0.7439340  )
        62           Si  tau(  62) = (  0.0743340  0.2779570  0.6176490  )
        63           Si  tau(  63) = (  0.4838930  0.3630590  0.6233880  )
        64           Si  tau(  64) = (  0.8207120  0.8269050  0.8725110  )
        65           Si  tau(  65) = (  0.1841990  0.6302350  0.0361978  )
        66           Si  tau(  66) = (  0.1561800  0.1385850  0.9502990  )
        67           Si  tau(  67) = (  0.4291680  0.8534150  0.1937590  )
        68           Si  tau(  68) = (  0.8607460  0.0783708  0.3981340  )
        69           Si  tau(  69) = (  0.8550890  0.9435460  0.4373780  )
        70           Si  tau(  70) = (  0.6486970  0.5370220  0.7782420  )
        71           Si  tau(  71) = (  0.2285260  0.6942610  0.7578490  )
        72           Si  tau(  72) = (  0.5838920  0.8993200  0.4883700  )
        73           Si  tau(  73) = (  0.1425050  0.0192549  0.6008220  )
        74           Si  tau(  74) = (  0.0782027  0.1092470  0.4129160  )
        75           Si  tau(  75) = (  0.9079130  0.4039070  0.9728530  )
        76           Si  tau(  76) = (  0.9034850  0.5766700  0.1439240  )
        77           Si  tau(  77) = (  0.2245080  0.5342550  0.4077860  )
        78           Si  tau(  78) = (  0.9731950  0.0048632  0.8932640  )
        79           Si  tau(  79) = (  0.2519060  0.8455850  0.4517400  )
        80           Si  tau(  80) = (  0.7757800  0.8592780  0.3501100  )
        81           Si  tau(  81) = (  0.3485340  0.5730100  0.4539730  )
        82           Si  tau(  82) = (  0.4666640  0.4028280  0.0869454  )
        83           Si  tau(  83) = (  0.7460300  0.3206860  0.8530690  )
        84           Si  tau(  84) = (  0.3880680  0.8160790  0.4214370  )
        85           Si  tau(  85) = (  0.7769810  0.0731609  0.6246260  )
        86           Si  tau(  86) = (  0.6432310  0.6677690  0.4464830  )
        87           Si  tau(  87) = (  0.9263740  0.9054760  0.7987950  )
        88           Si  tau(  88) = (  0.9902610  0.9330520  0.0165006  )
        89           Si  tau(  89) = (  0.3146420  0.0305801  0.0748800  )
        90           Si  tau(  90) = (  0.6653550  0.7379990  0.6510150  )
        91           Si  tau(  91) = (  0.3370920  0.5018040  0.9150220  )
        92           Si  tau(  92) = (  0.3229530  0.9692890  0.7812730  )
        93           Si  tau(  93) = (  0.1110230  0.1334570  0.0883409  )
        94           Si  tau(  94) = (  0.2076350  0.9339520  0.0880074  )
        95           Si  tau(  95) = (  0.2927270  0.2898550  0.7647520  )
        96           Si  tau(  96) = (  0.6843860  0.2950580  0.9850080  )
        97           Si  tau(  97) = (  0.3055180  0.0593589  0.4466770  )
        98           Si  tau(  98) = (  0.0413761  0.9214530  0.5771180  )
        99           Si  tau(  99) = (  0.9295030  0.0974752  0.6286380  )
       100           Si  tau( 100) = (  0.9573400  0.8426560  0.2094280  )
       101           Si  tau( 101) = (  0.3334390  0.6987930  0.8539070  )
       102           Si  tau( 102) = (  0.1453770  0.8131920  0.7564180  )
       103           Si  tau( 103) = (  0.0366699  0.6405090  0.3775350  )
       104           Si  tau( 104) = (  0.7696130  0.7962670  0.5684550  )
       105           Si  tau( 105) = (  0.8848670  0.7060070  0.5489480  )
       106           Si  tau( 106) = (  0.6075290  0.3196030  0.6725360  )
       107           Si  tau( 107) = (  0.0704426  0.7151400  0.0584918  )
       108           Si  tau( 108) = (  0.0761909  0.7595130  0.1909350  )
       109           Si  tau( 109) = (  0.8139870  0.9338730  0.5766350  )
       110           Si  tau( 110) = (  0.2802440  0.3685600  0.9549070  )
       111           Si  tau( 111) = (  0.7676560  0.2693590  0.0954383  )
       112           Si  tau( 112) = (  0.9555830  0.7504110  0.4255090  )
       113           Si  tau( 113) = (  0.8267420  0.4755810  0.0734529  )
       114           Si  tau( 114) = (  0.6684320  0.5578810  0.1733280  )
       115           Si  tau( 115) = (  0.5856710  0.9909890  0.5999420  )
       116           Si  tau( 116) = (  0.1981410  0.8592520  0.9644980  )
       117           Si  tau( 117) = (  0.2223380  0.4065970  0.0809333  )
       118           Si  tau( 118) = (  0.0220587  0.7995650  0.8261410  )
       119           Si  tau( 119) = (  0.8365620  0.6556380  0.2505670  )
       120           Si  tau( 120) = (  0.8462040  0.7522000  0.0031967  )
       121           Si  tau( 121) = (  0.5128250  0.5718540  0.7587760  )
       122           Si  tau( 122) = (  0.0100864  0.9735990  0.2355000  )
       123           Si  tau( 123) = (  0.9027930  0.3277770  0.2698500  )
       124           Si  tau( 124) = (  0.1387960  0.6278190  0.4715670  )
       125           Si  tau( 125) = (  0.7427550  0.5583620  0.4754140  )
       126           Si  tau( 126) = (  0.4353010  0.9519100  0.0867177  )
       127           Si  tau( 127) = (  0.6735920  0.5648550  0.9178690  )
       128           Si  tau( 128) = (  0.3637850  0.2504830  0.9766770  )
       129           Si  tau( 129) = (  0.3059100  0.0054697  0.3144720  )
       130           Si  tau( 130) = (  0.5326870  0.5873230  0.2180290  )
       131           Si  tau( 131) = (  0.3562440  0.5826720  0.5937260  )
       132           Si  tau( 132) = (  0.8650840  0.1623260  0.0610880  )
       133           Si  tau( 133) = (  0.2659620  0.5378260  0.1131650  )
       134           Si  tau( 134) = (  0.4806860  0.8088550  0.5293070  )
       135           Si  tau( 135) = (  0.1991380  0.8339650  0.2061820  )
       136           Si  tau( 136) = (  0.1576540  0.4949660  0.6582260  )
       137           Si  tau( 137) = (  0.1522800  0.5743970  0.7745450  )
       138           Si  tau( 138) = (  0.0806253  0.2640620  0.9107660  )
       139           Si  tau( 139) = (  0.4369390  0.4672730  0.8191320  )
       140           Si  tau( 140) = (  0.3857600  0.2883370  0.1125210  )
       141           Si  tau( 141) = (  0.8107700  0.2944980  0.3747070  )
       142           Si  tau( 142) = (  0.5354480  0.3783390  0.8733000  )
       143           Si  tau( 143) = (  0.9492160  0.6532680  0.0307132  )
       144           Si  tau( 144) = (  0.2909120  0.4567530  0.6195350  )
       145           Si  tau( 145) = (  0.0164016  0.1792370  0.7061010  )
       146           Si  tau( 146) = (  0.3767000  0.3953650  0.7148150  )
       147           Si  tau( 147) = (  0.4794660  0.6820470  0.8433180  )
       148           Si  tau( 148) = (  0.6904430  0.3208420  0.5565030  )
       149           Si  tau( 149) = (  0.1955460  0.1852330  0.1972130  )
       150           Si  tau( 150) = (  0.4963240  0.4532190  0.2138890  )
       151           Si  tau( 151) = (  0.4823360  0.1493260  0.7913500  )
       152           Si  tau( 152) = (  0.2020430  0.9103600  0.3315570  )
       153           Si  tau( 153) = (  0.8214160  0.6930680  0.7977190  )
       154           Si  tau( 154) = (  0.2891740  0.3378690  0.5301400  )
       155           Si  tau( 155) = (  0.4197700  0.3982560  0.3188040  )
       156           Si  tau( 156) = (  0.4992730  0.2062920  0.4485790  )
       157           Si  tau( 157) = (  0.0014747  0.6947320  0.6302440  )
       158           Si  tau( 158) = (  0.8876160  0.3495830  0.8377010  )
       159           Si  tau( 159) = (  0.0250011  0.5118480  0.1896800  )
       160           Si  tau( 160) = (  0.7483570  0.1659390  0.3817680  )
       161           Si  tau( 161) = (  0.3554290  0.9416720  0.6448720  )
       162           Si  tau( 162) = (  0.4997290  0.6139520  0.0710513  )
       163           Si  tau( 163) = (  0.5487080  0.0202931  0.1409510  )
       164           Si  tau( 164) = (  0.9527370  0.5242830  0.3928360  )
       165           Si  tau( 165) = (  0.9911590  0.8919050  0.4457510  )
       166           Si  tau( 166) = (  0.1318320  0.0961863  0.7250890  )
       167           Si  tau( 167) = (  0.4590790  0.4920100  0.4167140  )
       168           Si  tau( 168) = (  0.9588920  0.6883690  0.7664900  )
       169           Si  tau( 169) = (  0.2986470  0.1252490  0.9566130  )
       170           Si  tau( 170) = (  0.9176800  0.0805166  0.2644660  )
       171           Si  tau( 171) = (  0.6869240  0.4983880  0.0430322  )
       172           Si  tau( 172) = (  0.9521470  0.1355410  0.4870680  )
       173           Si  tau( 173) = (  0.4143140  0.1620630  0.6611200  )
       174           Si  tau( 174) = (  0.7058710  0.1150950  0.2570930  )
       175           Si  tau( 175) = (  0.0869951  0.4372160  0.0815302  )
       176           Si  tau( 176) = (  0.8113770  0.5902780  0.8991090  )
       177           Si  tau( 177) = (  0.7296020  0.6855180  0.1628910  )
       178           Si  tau( 178) = (  0.1990450  0.9218380  0.8347020  )
       179           Si  tau( 179) = (  0.4345770  0.1908390  0.2036490  )
       180           Si  tau( 180) = (  0.6778550  0.8041540  0.8797590  )
       181           Si  tau( 181) = (  0.4792340  0.8515640  0.9892120  )
       182           Si  tau( 182) = (  0.6328890  0.7927150  0.1638200  )
       183           Si  tau( 183) = (  0.1078660  0.5267910  0.9732070  )
       184           Si  tau( 184) = (  0.8791670  0.4503400  0.6261050  )
       185           Si  tau( 185) = (  0.5496100  0.1615150  0.1188550  )
       186           Si  tau( 186) = (  0.9770340  0.2084080  0.2419590  )
       187           Si  tau( 187) = (  0.1844700  0.1201680  0.5035700  )
       188           Si  tau( 188) = (  0.6207550  0.8360980  0.0141769  )
       189           Si  tau( 189) = (  0.7632570  0.0844684  0.8626230  )
       190           Si  tau( 190) = (  0.2056560  0.2344110  0.5853480  )
       191           Si  tau( 191) = (  0.4010170  0.8066230  0.6499880  )
       192           Si  tau( 192) = (  0.4126370  0.6806360  0.3901740  )
       193           Si  tau( 193) = (  0.6898570  0.8054210  0.4498470  )
       194           Si  tau( 194) = (  0.0795789  0.9962420  0.1103910  )
       195           Si  tau( 195) = (  0.5584800  0.7281690  0.2752070  )
       196           Si  tau( 196) = (  0.1995400  0.4834310  0.8730750  )
       197           Si  tau( 197) = (  0.1969200  0.7426000  0.5319940  )
       198           Si  tau( 198) = (  0.8255510  0.3161080  0.5963870  )
       199           Si  tau( 199) = (  0.2835590  0.4047050  0.2856340  )
       200           Si  tau( 200) = (  0.2957920  0.7071690  0.6309420  )
       201           Si  tau( 201) = (  0.5275730  0.9815610  0.3824570  )
       202           Si  tau( 202) = (  0.6541810  0.9705080  0.0444946  )
       203           Si  tau( 203) = (  0.9016480  0.2722990  0.4833290  )
       204           Si  tau( 204) = (  0.4523540  0.0364027  0.6016760  )
       205           Si  tau( 205) = (  0.2604870  0.3130340  0.1781270  )
       206           Si  tau( 206) = (  0.8193510  0.5806440  0.5950260  )
       207           Si  tau( 207) = (  0.5271620  0.4682940  0.5368890  )
       208           Si  tau( 208) = (  0.9615770  0.2240470  0.8377640  )
       209           Si  tau( 209) = (  0.4779770  0.8053960  0.7730900  )
       210           Si  tau( 210) = (  0.2198450  0.3913920  0.4128900  )
       211           Si  tau( 211) = (  0.6438660  0.2049310  0.4809560  )
       212           Si  tau( 212) = (  0.4951700  0.5828300  0.6172180  )
       213           Si  tau( 213) = (  0.6056500  0.3096910  0.2825070  )
       214           Si  tau( 214) = (  0.2625610  0.1619450  0.7006370  )
       215           Si  tau( 215) = (  0.7003540  0.8972890  0.2349150  )
       216           Si  tau( 216) = (  0.3308770  0.6559850  0.2739380  )
       217           H   tau( 217) = (  0.2537780  0.7001160  0.3288330  )
       218           H   tau( 218) = (  0.8220240  0.5192670  0.8357060  )
       219           H   tau( 219) = (  0.6276930  0.7192300  0.9954520  )
       220           H   tau( 220) = (  0.8030480  0.9088520  0.9270630  )
       221           H   tau( 221) = (  0.3404320  0.2561600  0.8366360  )
       222           H   tau( 222) = (  0.5777660  0.3869360  0.2275610  )
       223           H   tau( 223) = (  0.4112640  0.6159560  0.2252420  )
       224           H   tau( 224) = (  0.2889420  0.0874089  0.6439780  )
       225           H   tau( 225) = (  0.0701805  0.3609830  0.8739330  )
       226           H   tau( 226) = (  0.7829910  0.6846670  0.9760070  )
       227           H   tau( 227) = (  0.6668560  0.7095020  0.8872640  )
       228           H   tau( 228) = (  0.7842570  0.7051600  0.0841884  )
       229           H   tau( 229) = (  0.7194590  0.6482050  0.5216650  )
       230           H   tau( 230) = (  0.2285410  0.7626310  0.2617110  )
       231           H   tau( 231) = (  0.4176190  0.6684770  0.0080340  )
       232           H   tau( 232) = (  0.4690450  0.6992630  0.0988837  )
       233           H   tau( 233) = (  0.5244690  0.8435550  0.1936040  )
       234           H   tau( 234) = (  0.4748100  0.7560170  0.2405020  )
       235           H   tau( 235) = (  0.3482480  0.7905360  0.8371770  )
       236           H   tau( 236) = (  0.3932110  0.9847310  0.9268020  )
       237           H   tau( 237) = (  0.4589500  0.0243385  0.1866520  )
       238           H   tau( 238) = (  0.8400980  0.3407400  0.0092572  )

     number of k points=     8  Marzari-Vanderbilt smearing, width (Ry)=  0.0500
                       cart. coord. in units 2pi/alat
        k(    1) = (   0.0000000   0.0000000   0.0000000), wk =   0.2500000
        k(    2) = (   0.0000000   0.0000000  -0.5064181), wk =   0.2500000
        k(    3) = (   0.0000000  -0.5037753   0.0022179), wk =   0.2500000
        k(    4) = (   0.0000000  -0.5037753  -0.5042002), wk =   0.2500000
        k(    5) = (  -0.5000000   0.0077953   0.0087736), wk =   0.2500000
        k(    6) = (  -0.5000000   0.0077953  -0.4976445), wk =   0.2500000
        k(    7) = (  -0.5000000  -0.4959799   0.0109915), wk =   0.2500000
        k(    8) = (  -0.5000000  -0.4959799  -0.4954266), wk =   0.2500000

                       cryst. coord.
        k(    1) = (   0.0000000   0.0000000   0.0000000), wk =   0.2500000
        k(    2) = (   0.0000000   0.0000000  -0.5000000), wk =   0.2500000
        k(    3) = (   0.0000000  -0.5000000   0.0000000), wk =   0.2500000
        k(    4) = (   0.0000000  -0.5000000  -0.5000000), wk =   0.2500000
        k(    5) = (  -0.5000000   0.0000000   0.0000000), wk =   0.2500000
        k(    6) = (  -0.5000000   0.0000000  -0.5000000), wk =   0.2500000
        k(    7) = (  -0.5000000  -0.5000000   0.0000000), wk =   0.2500000
        k(    8) = (  -0.5000000  -0.5000000  -0.5000000), wk =   0.2500000

     Dense  grid:  1092343 G-vectors     FFT dimensions: ( 135, 128, 128)

     Dynamical RAM for                 wfc:     138.54 MB

     Dynamical RAM for     wfc (w. buffer):    1246.90 MB

     Dynamical RAM for           str. fact:       4.17 MB

     Dynamical RAM for           local pot:       0.00 MB

     Dynamical RAM for          nlocal pot:     281.26 MB

     Dynamical RAM for                qrad:       1.77 MB

     Dynamical RAM for          rho,v,vnew:      12.58 MB

     Dynamical RAM for               rhoin:       4.19 MB

     Dynamical RAM for            rho*nmix:      33.34 MB

     Dynamical RAM for           G-vectors:       8.85 MB

     Dynamical RAM for          h,s,v(r/c):     207.29 MB

     Dynamical RAM for          <psi|beta>:       8.77 MB

     Dynamical RAM for                 psi:     554.18 MB

     Dynamical RAM for                hpsi:     554.18 MB

     Dynamical RAM for      wfcinit/wfcrot:     479.44 MB

     Estimated static dynamical RAM per process >       1.57 GB

     Estimated max dynamical RAM per process >       2.87 GB

     Estimated total dynamical RAM >      22.92 GB

     Initial potential from superposition of free atoms

     starting charge  885.87899, renormalised to  886.00000
     Starting wfc are  886 randomized atomic wfcs

     total cpu time spent up to now is      288.8 secs

     Self-consistent Calculation

     iteration #  1     ecut=    42.00 Ry     beta= 0.30
     Davidson diagonalization with overlap
     ethr =  1.00E-02,  avg # of iterations =  3.0

     Threshold (ethr) on eigenvalues was too large:
     Diagonalizing with lowered threshold

     Davidson diagonalization with overlap
     ethr =  8.60E-04,  avg # of iterations =  2.0

     total cpu time spent up to now is     1403.9 secs

     total energy              =   -1722.87775277 Ry
     Harris-Foulkes estimate   =   -1724.46852007 Ry
     estimated scf accuracy    <       7.51468494 Ry

     iteration #  2     ecut=    42.00 Ry     beta= 0.30
     Davidson diagonalization with overlap
     ethr =  8.48E-04,  avg # of iterations =  2.1

     total cpu time spent up to now is     1812.6 secs

     total energy              =   -1722.42061031 Ry
     Harris-Foulkes estimate   =   -1723.36571185 Ry
     estimated scf accuracy    <       3.86615783 Ry

     iteration #  3     ecut=    42.00 Ry     beta= 0.30
     Davidson diagonalization with overlap
     ethr =  4.36E-04,  avg # of iterations =  5.1

     total cpu time spent up to now is     2455.4 secs

     total energy              =   -1721.91926543 Ry
     Harris-Foulkes estimate   =   -1723.65791407 Ry
     estimated scf accuracy    <      11.56967843 Ry

     iteration #  4     ecut=    42.00 Ry     beta= 0.30
     Davidson diagonalization with overlap
     ethr =  4.36E-04,  avg # of iterations =  4.9

     total cpu time spent up to now is     3072.9 secs

     total energy              =   -1722.48897721 Ry
     Harris-Foulkes estimate   =   -1723.05315828 Ry
     estimated scf accuracy    <       3.50521657 Ry

     iteration #  5     ecut=    42.00 Ry     beta= 0.30
     Davidson diagonalization with overlap
     ethr =  3.96E-04,  avg # of iterations =  3.0

     total cpu time spent up to now is     3513.6 secs

     total energy              =   -1722.71148334 Ry
     Harris-Foulkes estimate   =   -1722.85130981 Ry
     estimated scf accuracy    <       0.76979029 Ry

     iteration #  6     ecut=    42.00 Ry     beta= 0.30
     Davidson diagonalization with overlap
     ethr =  8.69E-05,  avg # of iterations =  5.1

     total cpu time spent up to now is     4092.4 secs

     total energy              =   -1722.76461154 Ry
     Harris-Foulkes estimate   =   -1722.83369101 Ry
     estimated scf accuracy    <       0.41441482 Ry

     iteration #  7     ecut=    42.00 Ry     beta= 0.30
     Davidson diagonalization with overlap
     ethr =  4.68E-05,  avg # of iterations =  3.4

     total cpu time spent up to now is     4553.1 secs

     total energy              =   -1722.79182192 Ry
     Harris-Foulkes estimate   =   -1722.80949165 Ry
     estimated scf accuracy    <       0.09322848 Ry

     iteration #  8     ecut=    42.00 Ry     beta= 0.30
     Davidson diagonalization with overlap
     ethr =  1.05E-05,  avg # of iterations =  8.8

     total cpu time spent up to now is     5262.1 secs

     total energy              =   -1722.79734241 Ry
     Harris-Foulkes estimate   =   -1722.80954614 Ry
     estimated scf accuracy    <       0.08114054 Ry

     iteration #  9     ecut=    42.00 Ry     beta= 0.30
     Davidson diagonalization with overlap
     ethr =  9.16E-06,  avg # of iterations =  3.6

     total cpu time spent up to now is     5720.7 secs

     total energy              =   -1722.80239170 Ry
     Harris-Foulkes estimate   =   -1722.80562532 Ry
     estimated scf accuracy    <       0.01822665 Ry

     iteration # 10     ecut=    42.00 Ry     beta= 0.30
     Davidson diagonalization with overlap
     ethr =  2.06E-06,  avg # of iterations =  8.9

     total cpu time spent up to now is     6381.8 secs

     total energy              =   -1722.80362468 Ry
     Harris-Foulkes estimate   =   -1722.80496397 Ry
     estimated scf accuracy    <       0.00715081 Ry

     iteration # 11     ecut=    42.00 Ry     beta= 0.30
     Davidson diagonalization with overlap
     ethr =  8.07E-07,  avg # of iterations =  3.1

     total cpu time spent up to now is     6846.6 secs

     total energy              =   -1722.80406923 Ry
     Harris-Foulkes estimate   =   -1722.80479329 Ry
     estimated scf accuracy    <       0.00445039 Ry

     iteration # 12     ecut=    42.00 Ry     beta= 0.30
     Davidson diagonalization with overlap
     ethr =  5.02E-07,  avg # of iterations =  3.0

     total cpu time spent up to now is     7289.3 secs

     total energy              =   -1722.80435607 Ry
     Harris-Foulkes estimate   =   -1722.80458550 Ry
     estimated scf accuracy    <       0.00114021 Ry

     iteration # 13     ecut=    42.00 Ry     beta= 0.30
     Davidson diagonalization with overlap
     ethr =  1.29E-07,  avg # of iterations =  3.0

     total cpu time spent up to now is     7766.2 secs

     total energy              =   -1722.80439171 Ry
     Harris-Foulkes estimate   =   -1722.80459802 Ry
     estimated scf accuracy    <       0.00139717 Ry

     iteration # 14     ecut=    42.00 Ry     beta= 0.30
     Davidson diagonalization with overlap
     ethr =  1.29E-07,  avg # of iterations =  3.0

     total cpu time spent up to now is     8199.5 secs

     total energy              =   -1722.80447637 Ry
     Harris-Foulkes estimate   =   -1722.80452178 Ry
     estimated scf accuracy    <       0.00025072 Ry

     iteration # 15     ecut=    42.00 Ry     beta= 0.30
     Davidson diagonalization with overlap
     ethr =  2.83E-08,  avg # of iterations =  3.0

     total cpu time spent up to now is     8670.5 secs

     total energy              =   -1722.80448850 Ry
     Harris-Foulkes estimate   =   -1722.80452064 Ry
     estimated scf accuracy    <       0.00020563 Ry

     iteration # 16     ecut=    42.00 Ry     beta= 0.30
     Davidson diagonalization with overlap
     ethr =  2.32E-08,  avg # of iterations =  3.0

     total cpu time spent up to now is     9110.0 secs

     total energy              =   -1722.80450192 Ry
     Harris-Foulkes estimate   =   -1722.80450874 Ry
     estimated scf accuracy    <       0.00003493 Ry

     iteration # 17     ecut=    42.00 Ry     beta= 0.30
     Davidson diagonalization with overlap
     ethr =  3.94E-09,  avg # of iterations =  3.0

     total cpu time spent up to now is     9596.2 secs

     total energy              =   -1722.80450395 Ry
     Harris-Foulkes estimate   =   -1722.80450880 Ry
     estimated scf accuracy    <       0.00002665 Ry

     iteration # 18     ecut=    42.00 Ry     beta= 0.30
     Davidson diagonalization with overlap
     ethr =  3.01E-09,  avg # of iterations =  3.0

     total cpu time spent up to now is    10046.6 secs

     total energy              =   -1722.80450571 Ry
     Harris-Foulkes estimate   =   -1722.80450724 Ry
     estimated scf accuracy    <       0.00000857 Ry

     iteration # 19     ecut=    42.00 Ry     beta= 0.30
     Davidson diagonalization with overlap
     ethr =  9.68E-10,  avg # of iterations =  3.0

     total cpu time spent up to now is    10535.8 secs

     total energy              =   -1722.80450603 Ry
     Harris-Foulkes estimate   =   -1722.80450733 Ry
     estimated scf accuracy    <       0.00000866 Ry

     iteration # 20     ecut=    42.00 Ry     beta= 0.30
     Davidson diagonalization with overlap
     ethr =  9.68E-10,  avg # of iterations =  3.0

     total cpu time spent up to now is    10982.1 secs

     total energy              =   -1722.80450661 Ry
     Harris-Foulkes estimate   =   -1722.80450696 Ry
     estimated scf accuracy    <       0.00000220 Ry

     iteration # 21     ecut=    42.00 Ry     beta= 0.30
     Davidson diagonalization with overlap
     ethr =  2.48E-10,  avg # of iterations =  3.0

     total cpu time spent up to now is    11452.7 secs

     total energy              =   -1722.80450674 Ry
     Harris-Foulkes estimate   =   -1722.80450694 Ry
     estimated scf accuracy    <       0.00000122 Ry

     iteration # 22     ecut=    42.00 Ry     beta= 0.30
     Davidson diagonalization with overlap
     ethr =  1.38E-10,  avg # of iterations =  3.0

     total cpu time spent up to now is    11912.2 secs

     total energy              =   -1722.80450682 Ry
     Harris-Foulkes estimate   =   -1722.80450692 Ry
     estimated scf accuracy    <       0.00000065 Ry

     iteration # 23     ecut=    42.00 Ry     beta= 0.30
     Davidson diagonalization with overlap
     ethr =  7.34E-11,  avg # of iterations =  3.0

     total cpu time spent up to now is    12358.0 secs

     total energy              =   -1722.80450685 Ry
     Harris-Foulkes estimate   =   -1722.80450691 Ry
     estimated scf accuracy    <       0.00000034 Ry

     iteration # 24     ecut=    42.00 Ry     beta= 0.30
     Davidson diagonalization with overlap
     ethr =  3.83E-11,  avg # of iterations =  3.0

     total cpu time spent up to now is    12814.1 secs

     total energy              =   -1722.80450687 Ry
     Harris-Foulkes estimate   =   -1722.80450691 Ry
     estimated scf accuracy    <       0.00000031 Ry

     iteration # 25     ecut=    42.00 Ry     beta= 0.30
     Davidson diagonalization with overlap
     ethr =  3.44E-11,  avg # of iterations =  3.0

     total cpu time spent up to now is    13239.2 secs

     total energy              =   -1722.80450688 Ry
     Harris-Foulkes estimate   =   -1722.80450690 Ry
     estimated scf accuracy    <       0.00000009 Ry

     iteration # 26     ecut=    42.00 Ry     beta= 0.30
     Davidson diagonalization with overlap
     ethr =  9.60E-12,  avg # of iterations =  3.0

     total cpu time spent up to now is    13689.9 secs

     total energy              =   -1722.80450689 Ry
     Harris-Foulkes estimate   =   -1722.80450689 Ry
     estimated scf accuracy    <       0.00000004 Ry

     iteration # 27     ecut=    42.00 Ry     beta= 0.30
     Davidson diagonalization with overlap
     ethr =  4.86E-12,  avg # of iterations =  3.0

     total cpu time spent up to now is    14132.4 secs

     total energy              =   -1722.80450689 Ry
     Harris-Foulkes estimate   =   -1722.80450689 Ry
     estimated scf accuracy    <       0.00000003 Ry

     iteration # 28     ecut=    42.00 Ry     beta= 0.30
     Davidson diagonalization with overlap
     ethr =  3.20E-12,  avg # of iterations =  3.0

     total cpu time spent up to now is    14569.9 secs

     total energy              =   -1722.80450689 Ry
     Harris-Foulkes estimate   =   -1722.80450689 Ry
     estimated scf accuracy    <       0.00000001 Ry

     iteration # 29     ecut=    42.00 Ry     beta= 0.30
     Davidson diagonalization with overlap
     ethr =  1.32E-12,  avg # of iterations =  3.0

     total cpu time spent up to now is    14999.6 secs

     End of self-consistent calculation

          k = 0.0000 0.0000 0.0000 (136507 PWs)   bands (ev):

    -6.1266  -5.8178  -5.7550  -5.6537  -5.6186  -5.5844  -5.5181  -5.4006
    -5.3210  -5.2300  -5.2092  -5.1959  -5.1434  -5.1094  -5.0893  -5.0617
    -5.0219  -4.9948  -4.9546  -4.7795  -4.7389  -4.7164  -4.6472  -4.6301
    -4.6030  -4.5345  -4.5239  -4.3680  -4.3254  -4.3020  -4.2463  -4.2076
    -4.1730  -4.1004  -4.0831  -4.0490  -4.0056  -4.0021  -3.9653  -3.9428
    -3.9059  -3.8978  -3.8642  -3.8468  -3.8104  -3.8037  -3.7753  -3.7432
    -3.7259  -3.7109  -3.7033  -3.6919  -3.6600  -3.6381  -3.5957  -3.5694
    -3.5355  -3.5110  -3.4937  -3.4849  -3.4380  -3.4103  -3.3787  -3.3730
    -3.3530  -3.3080  -3.2834  -3.2811  -3.2444  -3.2327  -3.1947  -3.1462
    -3.1351  -3.1076  -3.0407  -3.0171  -2.9893  -2.9800  -2.9184  -2.9057
    -2.7890  -2.6626  -2.6363  -2.5616  -2.5416  -2.5108  -2.4600  -2.4454
    -2.4129  -2.3630  -2.3518  -2.2877  -2.2474  -2.2155  -2.1930  -2.1721
    -2.1595  -2.1210  -2.1068  -2.0664  -2.0196  -2.0001  -1.9511  -1.9362
    -1.9224  -1.9061  -1.8813  -1.8656  -1.8528  -1.8269  -1.7831  -1.7489
    -1.6760  -1.6596  -1.6477  -1.6179  -1.5488  -1.5130  -1.4890  -1.4556
    -1.4194  -1.4008  -1.3518  -1.2985  -1.2808  -1.2605  -1.2135  -1.2032
    -1.1538  -1.1091  -1.0730  -1.0197  -0.9614  -0.9311  -0.9072  -0.8554
    -0.8382  -0.8153  -0.7757  -0.7475  -0.7224  -0.6630  -0.6477  -0.5989
    -0.5645  -0.5259  -0.5190  -0.4520  -0.4101  -0.3745  -0.3620  -0.3285
    -0.2908  -0.2717  -0.2316  -0.1827  -0.1343  -0.1238  -0.0610  -0.0466
    -0.0252   0.0179   0.0314   0.0506   0.0871   0.1218   0.1639   0.1839
     0.2019   0.2350   0.2427   0.2837   0.3643   0.3909   0.4411   0.4744
     0.5199   0.5405   0.5457   0.5803   0.6135   0.6522   0.6780   0.7185
     0.7754   0.7915   0.8170   0.8269   0.8808   0.8989   0.9223   0.9737
     1.0102   1.0568   1.0651   1.0958   1.1045   1.1611   1.1668   1.1904
     1.2166   1.2592   1.2814   1.3471   1.3686   1.4011   1.4190   1.4489
     1.4737   1.5192   1.5280   1.5498   1.5860   1.6175   1.6482   1.6856
     1.7041   1.7147   1.7292   1.7507   1.8076   1.8543   1.8582   1.8673
     1.8841   1.9216   1.9582   1.9971   2.0121   2.0444   2.0596   2.0913
     2.1098   2.1184   2.1495   2.1771   2.1872   2.1982   2.2365   2.2571
     2.2711   2.2784   2.3163   2.3428   2.3515   2.3756   2.4191   2.4293
     2.4674   2.4946   2.5054   2.5280   2.5435   2.5708   2.5809   2.6016
     2.6411   2.6471   2.6627   2.6763   2.7244   2.7282   2.7511   2.7648
     2.7679   2.7813   2.8180   2.8412   2.8565   2.8894   2.8957   2.9134
     2.9251   2.9453   2.9471   2.9971   3.0108   3.0266   3.0497   3.0581
     3.0759   3.0948   3.1096   3.1375   3.1436   3.1498   3.1777   3.1823
     3.1971   3.2178   3.2322   3.2514   3.2560   3.2706   3.2917   3.3052
     3.3184   3.3215   3.3461   3.3499   3.3867   3.3941   3.4065   3.4232
     3.4342   3.4575   3.4713   3.4993   3.5085   3.5204   3.5382   3.5589
     3.5741   3.5905   3.6019   3.6254   3.6392   3.6498   3.6639   3.6720
     3.6893   3.6995   3.7100   3.7220   3.7331   3.7468   3.7536   3.7786
     3.7912   3.7985   3.8087   3.8371   3.8440   3.8606   3.8796   3.8952
     3.9139   3.9218   3.9378   3.9566   3.9585   3.9879   4.0051   4.0108
     4.0338   4.0528   4.0544   4.0589   4.0804   4.1058   4.1234   4.1252
     4.1313   4.1419   4.1528   4.1704   4.2017   4.2087   4.2223   4.2383
     4.2589   4.2721   4.2960   4.3016   4.3179   4.3350   4.3381   4.3635
     4.3675   4.3999   4.4085   4.4244   4.4406   4.4551   4.4705   4.4757
     4.4943   4.5139   4.5189   4.5412   4.5500   4.5717   4.5903   4.6055
     4.6236   4.6389   4.6591   4.6644   4.6967   4.7041   4.7299   4.7422
     4.7464   4.7711   4.7811   4.8020   4.8193   4.8309   4.8542   4.8635
     4.9044   4.9224   4.9242   4.9430   4.9678   4.9952   5.0201   5.0610
     5.0778   5.0945   5.1377   5.1503   5.1716   5.1983   5.2083   5.2363
     5.2386   5.2511   5.2796   5.3099   5.3296   5.3412   5.3709   5.3957
     5.4207   5.4356   5.4935   5.5039   5.5624   5.6116   5.6559   5.6842
     5.7900   5.8394   5.8938   5.9067   5.9764   6.0226   6.0884   6.1495
     6.1805   6.2096   6.2890   6.3576   6.4214   6.4886   6.5159   6.5771
     6.6224   6.7112   6.7290   6.7684   6.8550   6.9405   7.0126   7.0367
     7.0675   7.1173   7.1361   7.1783   7.2058   7.2365   7.2448   7.3071
     7.3313   7.3531   7.3753   7.4057   7.4279   7.4355   7.4555   7.4872
     7.5065   7.5142   7.5386   7.5582   7.5803   7.5942   7.6226   7.6500
     7.6690   7.6873   7.7009   7.7165   7.7357   7.7473   7.7697   7.7976
     7.8139   7.8333   7.8396   7.8843   7.8896   7.9203   7.9502   7.9642
     7.9831   7.9906   8.0025   8.0290   8.0463   8.0510   8.0873   8.0894
     8.0951   8.1294   8.1310   8.1465   8.1639   8.1745   8.2247   8.2584
     8.2600   8.2815   8.2915   8.3015   8.3178   8.3275   8.3515   8.3572
     8.3746   8.3815   8.3995   8.4216   8.4371   8.4446   8.4553   8.4863
     8.4951   8.5159   8.5345   8.5561

     occupation numbers 
     1.0000   1.0000   1.0000   1.0000   1.0000   1.0000   1.0000   1.0000
     1.0000   1.0000   1.0000   1.0000   1.0000   1.0000   1.0000   1.0000
     1.0000   1.0000   1.0000   1.0000   1.0000   1.0000   1.0000   1.0000
     1.0000   1.0000   1.0000   1.0000   1.0000   1.0000   1.0000   1.0000
     1.0000   1.0000   1.0000   1.0000   1.0000   1.0000   1.0000   1.0000
     1.0000   1.0000   1.0000   1.0000   1.0000   1.0000   1.0000   1.0000
     1.0000   1.0000   1.0000   1.0000   1.0000   1.0000   1.0000   1.0000
     1.0000   1.0000   1.0000   1.0000   1.0000   1.0000   1.0000   1.0000
     1.0000   1.0000   1.0000   1.0000   1.0000   1.0000   1.0000   1.0000
     1.0000   1.0000   1.0000   1.0000   1.0000   1.0000   1.0000   1.0000
     1.0000   1.0000   1.0000   1.0000   1.0000   1.0000   1.0000   1.0000
     1.0000   1.0000   1.0000   1.0000   1.0000   1.0000   1.0000   1.0000
     1.0000   1.0000   1.0000   1.0000   1.0000   1.0000   1.0000   1.0000
     1.0000   1.0000   1.0000   1.0000   1.0000   1.0000   1.0000   1.0000
     1.0000   1.0000   1.0000   1.0000   1.0000   1.0000   1.0000   1.0000
     1.0000   1.0000   1.0000   1.0000   1.0000   1.0000   1.0000   1.0000
     1.0000   1.0000   1.0000   1.0000   1.0000   1.0000   1.0000   1.0000
     1.0000   1.0000   1.0000   1.0000   1.0000   1.0000   1.0000   1.0000
     1.0000   1.0000   1.0000   1.0000   1.0000   1.0000   1.0000   1.0000
     1.0000   1.0000   1.0000   1.0000   1.0000   1.0000   1.0000   1.0000
     1.0000   1.0000   1.0000   1.0000   1.0000   1.0000   1.0000   1.0000
     1.0000   1.0000   1.0000   1.0000   1.0000   1.0000   1.0000   1.0000
     1.0000   1.0000   1.0000   1.0000   1.0000   1.0000   1.0000   1.0000
     1.0000   1.0000   1.0000   1.0000   1.0000   1.0000   1.0000   1.0000
     1.0000   1.0000   1.0000   1.0000   1.0000   1.0000   1.0000   1.0000
     1.0000   1.0000   1.0000   1.0000   1.0000   1.0000   1.0000   1.0000
     1.0000   1.0000   1.0000   1.0000   1.0000   1.0000   1.0000   1.0000
     1.0000   1.0000   1.0000   1.0000   1.0000   1.0000   1.0000   1.0000
     1.0000   1.0000   1.0000   1.0000   1.0000   1.0000   1.0000   1.0000
     1.0000   1.0000   1.0000   1.0000   1.0000   1.0000   1.0000   1.0000
     1.0000   1.0000   1.0000   1.0000   1.0000   1.0000   1.0000   1.0000
     1.0000   1.0000   1.0000   1.0000   1.0000   1.0000   1.0000   1.0000
     1.0000   1.0000   1.0000   1.0000   1.0000   1.0000   1.0000   1.0000
     1.0000   1.0000   1.0000   1.0000   1.0000   1.0000   1.0000   1.0000
     1.0000   1.0000   1.0000   1.0000   1.0000   1.0000   1.0000   1.0000
     1.0000   1.0000   1.0000   1.0000   1.0000   1.0000   1.0000   1.0000
     1.0000   1.0000   1.0000   1.0000   1.0000   1.0000   1.0000   1.0000
     1.0000   1.0000   1.0000   1.0000   1.0000   1.0000   1.0000   1.0000
     1.0000   1.0000   1.0000   1.0000   1.0000   1.0000   1.0000   1.0000
     1.0000   1.0000   1.0000   1.0000   1.0000   1.0000   1.0000   1.0000
     1.0000   1.0000   1.0000   1.0000   1.0000   1.0001   1.0001   1.0001
     1.0001   1.0001   1.0001   1.0001   1.0001   1.0001   1.0002   1.0002
     1.0002   1.0002   1.0003   1.0003   1.0003   1.0004   1.0004   1.0004
     1.0005   1.0006   1.0006   1.0006   1.0007   1.0009   1.0010   1.0010
     1.0010   1.0011   1.0012   1.0013   1.0016   1.0017   1.0019   1.0021
     1.0023   1.0025   1.0029   1.0030   1.0034   1.0037   1.0038   1.0044
     1.0045   1.0054   1.0056   1.0061   1.0067   1.0072   1.0078   1.0080
     1.0088   1.0098   1.0100   1.0112   1.0116   1.0129   1.0141   1.0151
     1.0164   1.0175   1.0191   1.0195   1.0223   1.0230   1.0255   1.0267
     1.0271   1.0297   1.0308   1.0332   1.0353   1.0367   1.0396   1.0408
     1.0461   1.0486   1.0488   1.0514   1.0548   1.0586   1.0620   1.0674
     1.0695   1.0715   1.0762   1.0775   1.0793   1.0812   1.0817   1.0829
     1.0829   1.0832   1.0832   1.0822   1.0810   1.0800   1.0767   1.0729
     1.0681   1.0648   1.0480   1.0444   1.0199   0.9941   0.9668   0.9473
     0.8615   0.8152   0.7606   0.7472   0.6725   0.6216   0.5488   0.4822
     0.4492   0.4191   0.3411   0.2802   0.2296   0.1829   0.1660   0.1321
     0.1104   0.0759   0.0702   0.0587   0.0387   0.0249   0.0168   0.0146
     0.0122   0.0091   0.0081   0.0062   0.0052   0.0043   0.0040   0.0027
     0.0022   0.0019   0.0016   0.0013   0.0011   0.0011   0.0009   0.0007
     0.0006   0.0006   0.0005   0.0004   0.0003   0.0003   0.0002   0.0002
     0.0002   0.0001   0.0001   0.0001   0.0001   0.0001   0.0001   0.0001
     0.0000   0.0000   0.0000   0.0000   0.0000   0.0000   0.0000   0.0000
     0.0000   0.0000   0.0000   0.0000   0.0000   0.0000   0.0000   0.0000
     0.0000   0.0000   0.0000   0.0000   0.0000   0.0000   0.0000   0.0000
     0.0000   0.0000   0.0000   0.0000   0.0000   0.0000   0.0000   0.0000
     0.0000   0.0000   0.0000   0.0000   0.0000   0.0000   0.0000   0.0000
     0.0000   0.0000   0.0000   0.0000

          k = 0.0000 0.0000-0.5064 (136538 PWs)   bands (ev):

    -6.0445  -5.9948  -5.7069  -5.6571  -5.5514  -5.5304  -5.5028  -5.4630
    -5.3934  -5.3855  -5.2593  -5.1273  -5.1152  -5.0848  -5.0519  -4.9971
    -4.9563  -4.9086  -4.8876  -4.8230  -4.7437  -4.6948  -4.6478  -4.5855
    -4.5266  -4.4752  -4.4307  -4.4041  -4.3570  -4.3080  -4.2842  -4.2312
    -4.2030  -4.1781  -4.1462  -4.1277  -4.1183  -4.0802  -4.0365  -4.0063
    -3.9809  -3.9604  -3.9484  -3.9114  -3.8961  -3.8587  -3.8283  -3.7646
    -3.7479  -3.7353  -3.6926  -3.6785  -3.6481  -3.6322  -3.5984  -3.5443
    -3.5197  -3.5055  -3.4805  -3.4575  -3.4242  -3.3753  -3.3487  -3.2918
    -3.2452  -3.2312  -3.1989  -3.1681  -3.1303  -3.1051  -3.0640  -3.0329
    -3.0146  -2.9885  -2.9500  -2.9330  -2.9064  -2.8739  -2.8412  -2.8080
    -2.7796  -2.6957  -2.6859  -2.6584  -2.6458  -2.5802  -2.5687  -2.5021
    -2.4973  -2.4507  -2.4207  -2.3960  -2.3768  -2.3324  -2.3050  -2.2515
    -2.2088  -2.1819  -2.1365  -2.1255  -2.0794  -2.0655  -2.0111  -1.9741
    -1.9517  -1.8808  -1.8587  -1.8207  -1.8116  -1.7882  -1.7482  -1.7163
    -1.6684  -1.6507  -1.6048  -1.5954  -1.5483  -1.4316  -1.4282  -1.4051
    -1.3545  -1.3366  -1.3239  -1.2836  -1.2547  -1.2268  -1.1944  -1.1774
    -1.1571  -1.1133  -1.0980  -1.0698  -1.0449  -1.0118  -0.9532  -0.9042
    -0.8759  -0.8058  -0.7855  -0.7497  -0.7232  -0.6595  -0.6377  -0.6114
    -0.5572  -0.5304  -0.5112  -0.4668  -0.3731  -0.3398  -0.3118  -0.2991
    -0.2733  -0.2452  -0.1966  -0.1824  -0.1613  -0.1091  -0.0932  -0.0641
    -0.0142   0.0007   0.0560   0.0708   0.0955   0.1095   0.1746   0.2089
     0.2261   0.2796   0.3090   0.3303   0.3587   0.3627   0.4342   0.4957
     0.5096   0.5633   0.5710   0.5981   0.6265   0.6456   0.6692   0.6778
     0.7343   0.7508   0.8182   0.8261   0.8476   0.8837   0.9269   0.9740
     0.9933   1.0009   1.0349   1.1021   1.1415   1.1596   1.2082   1.2291
     1.2567   1.2898   1.3134   1.3250   1.3453   1.3949   1.4268   1.4335
     1.4609   1.5143   1.5187   1.5846   1.5978   1.6365   1.6611   1.6998
     1.7250   1.7600   1.7619   1.7989   1.8267   1.8607   1.8739   1.8881
     1.9081   1.9590   1.9743   2.0085   2.0139   2.0458   2.0628   2.0720
     2.0876   2.1383   2.1486   2.1746   2.1991   2.2074   2.2421   2.2434
     2.2929   2.3151   2.3206   2.3420   2.3700   2.3727   2.3774   2.4061
     2.4624   2.4740   2.4759   2.4893   2.5094   2.5336   2.5575   2.5679
     2.5792   2.6193   2.6409   2.6599   2.6862   2.6914   2.7189   2.7441
     2.7574   2.7851   2.8105   2.8218   2.8321   2.8377   2.8753   2.8843
     2.9115   2.9165   2.9409   2.9514   2.9688   2.9794   3.0013   3.0294
     3.0328   3.0477   3.0614   3.0678   3.1043   3.1258   3.1377   3.1713
     3.1853   3.2045   3.2207   3.2401   3.2482   3.2750   3.2808   3.2957
     3.3112   3.3238   3.3414   3.3731   3.3830   3.3960   3.3998   3.4122
     3.4274   3.4498   3.4667   3.4728   3.4967   3.5098   3.5244   3.5438
     3.5592   3.5676   3.5777   3.6012   3.6095   3.6349   3.6383   3.6490
     3.6617   3.6998   3.7216   3.7334   3.7392   3.7607   3.7675   3.8108
     3.8160   3.8280   3.8501   3.8566   3.8669   3.8873   3.8932   3.9064
     3.9170   3.9300   3.9421   3.9775   3.9844   3.9971   4.0260   4.0344
     4.0399   4.0729   4.0819   4.0974   4.1028   4.1176   4.1206   4.1461
     4.1625   4.1767   4.1994   4.1997   4.2249   4.2346   4.2485   4.2586
     4.2878   4.3073   4.3101   4.3250   4.3282   4.3472   4.3747   4.3956
     4.4196   4.4244   4.4422   4.4574   4.4776   4.4823   4.4953   4.5057
     4.5178   4.5445   4.5473   4.5643   4.5836   4.5994   4.6150   4.6225
     4.6403   4.6707   4.6827   4.6881   4.7085   4.7195   4.7328   4.7547
     4.7683   4.7897   4.8127   4.8293   4.8445   4.8655   4.8677   4.8848
     4.9120   4.9310   4.9413   4.9659   4.9854   5.0266   5.0528   5.0688
     5.0828   5.0850   5.1055   5.1284   5.1378   5.1453   5.1584   5.1836
     5.1971   5.2417   5.2551   5.2812   5.2994   5.3377   5.3634   5.3962
     5.4321   5.4429   5.4750   5.4809   5.5488   5.5821   5.6257   5.7416
     5.8009   5.8211   5.8733   5.9050   5.9728   6.0054   6.0837   6.1371
     6.1811   6.1964   6.3139   6.3358   6.4271   6.4636   6.4891   6.5417
     6.6248   6.7131   6.7482   6.7978   6.8499   6.8715   6.9536   6.9949
     7.0220   7.1058   7.1548   7.1859   7.2134   7.2456   7.2658   7.2846
     7.3145   7.3253   7.3638   7.3877   7.3941   7.4334   7.4781   7.4860
     7.5105   7.5377   7.5458   7.5597   7.5892   7.5964   7.6187   7.6377
     7.6580   7.6675   7.6784   7.7105   7.7428   7.7592   7.7716   7.7983
     7.8265   7.8396   7.8431   7.8735   7.8920   7.9060   7.9395   7.9451
     7.9657   7.9725   8.0117   8.0222   8.0330   8.0627   8.0703   8.0950
     8.0994   8.1329   8.1453   8.1574   8.1779   8.1880   8.2042   8.2327
     8.2509   8.2583   8.2667   8.2999   8.3218   8.3362   8.3448   8.3548
     8.3636   8.3751   8.3845   8.3980   8.4163   8.4307   8.4535   8.4640
     8.4689   8.5049   8.5187   8.5409

     occupation numbers 
     1.0000   1.0000   1.0000   1.0000   1.0000   1.0000   1.0000   1.0000
     1.0000   1.0000   1.0000   1.0000   1.0000   1.0000   1.0000   1.0000
     1.0000   1.0000   1.0000   1.0000   1.0000   1.0000   1.0000   1.0000
     1.0000   1.0000   1.0000   1.0000   1.0000   1.0000   1.0000   1.0000
     1.0000   1.0000   1.0000   1.0000   1.0000   1.0000   1.0000   1.0000
     1.0000   1.0000   1.0000   1.0000   1.0000   1.0000   1.0000   1.0000
     1.0000   1.0000   1.0000   1.0000   1.0000   1.0000   1.0000   1.0000
     1.0000   1.0000   1.0000   1.0000   1.0000   1.0000   1.0000   1.0000
     1.0000   1.0000   1.0000   1.0000   1.0000   1.0000   1.0000   1.0000
     1.0000   1.0000   1.0000   1.0000   1.0000   1.0000   1.0000   1.0000
     1.0000   1.0000   1.0000   1.0000   1.0000   1.0000   1.0000   1.0000
     1.0000   1.0000   1.0000   1.0000   1.0000   1.0000   1.0000   1.0000
     1.0000   1.0000   1.0000   1.0000   1.0000   1.0000   1.0000   1.0000
     1.0000   1.0000   1.0000   1.0000   1.0000   1.0000   1.0000   1.0000
     1.0000   1.0000   1.0000   1.0000   1.0000   1.0000   1.0000   1.0000
     1.0000   1.0000   1.0000   1.0000   1.0000   1.0000   1.0000   1.0000
     1.0000   1.0000   1.0000   1.0000   1.0000   1.0000   1.0000   1.0000
     1.0000   1.0000   1.0000   1.0000   1.0000   1.0000   1.0000   1.0000
     1.0000   1.0000   1.0000   1.0000   1.0000   1.0000   1.0000   1.0000
     1.0000   1.0000   1.0000   1.0000   1.0000   1.0000   1.0000   1.0000
     1.0000   1.0000   1.0000   1.0000   1.0000   1.0000   1.0000   1.0000
     1.0000   1.0000   1.0000   1.0000   1.0000   1.0000   1.0000   1.0000
     1.0000   1.0000   1.0000   1.0000   1.0000   1.0000   1.0000   1.0000
     1.0000   1.0000   1.0000   1.0000   1.0000   1.0000   1.0000   1.0000
     1.0000   1.0000   1.0000   1.0000   1.0000   1.0000   1.0000   1.0000
     1.0000   1.0000   1.0000   1.0000   1.0000   1.0000   1.0000   1.0000
     1.0000   1.0000   1.0000   1.0000   1.0000   1.0000   1.0000   1.0000
     1.0000   1.0000   1.0000   1.0000   1.0000   1.0000   1.0000   1.0000
     1.0000   1.0000   1.0000   1.0000   1.0000   1.0000   1.0000   1.0000
     1.0000   1.0000   1.0000   1.0000   1.0000   1.0000   1.0000   1.0000
     1.0000   1.0000   1.0000   1.0000   1.0000   1.0000   1.0000   1.0000
     1.0000   1.0000   1.0000   1.0000   1.0000   1.0000   1.0000   1.0000
     1.0000   1.0000   1.0000   1.0000   1.0000   1.0000   1.0000   1.0000
     1.0000   1.0000   1.0000   1.0000   1.0000   1.0000   1.0000   1.0000
     1.0000   1.0000   1.0000   1.0000   1.0000   1.0000   1.0000   1.0000
     1.0000   1.0000   1.0000   1.0000   1.0000   1.0000   1.0000   1.0000
     1.0000   1.0000   1.0000   1.0000   1.0000   1.0000   1.0000   1.0000
     1.0000   1.0000   1.0000   1.0000   1.0000   1.0000   1.0000   1.0000
     1.0000   1.0000   1.0000   1.0000   1.0000   1.0000   1.0000   1.0000
     1.0000   1.0000   1.0000   1.0000   1.0000   1.0000   1.0000   1.0000
     1.0000   1.0000   1.0000   1.0000   1.0001   1.0001   1.0001   1.0001
     1.0001   1.0001   1.0001   1.0001   1.0001   1.0002   1.0002   1.0002
     1.0002   1.0002   1.0003   1.0003   1.0004   1.0004   1.0005   1.0005
     1.0005   1.0007   1.0007   1.0008   1.0008   1.0009   1.0010   1.0011
     1.0013   1.0014   1.0016   1.0016   1.0019   1.0020   1.0022   1.0023
     1.0028   1.0031   1.0032   1.0035   1.0036   1.0040   1.0047   1.0052
     1.0060   1.0061   1.0067   1.0073   1.0081   1.0083   1.0089   1.0094
     1.0100   1.0113   1.0115   1.0125   1.0136   1.0147   1.0157   1.0163
     1.0176   1.0200   1.0211   1.0215   1.0234   1.0244   1.0257   1.0280
     1.0294   1.0318   1.0345   1.0365   1.0383   1.0410   1.0413   1.0435
     1.0472   1.0498   1.0512   1.0546   1.0573   1.0629   1.0664   1.0684
     1.0701   1.0704   1.0728   1.0753   1.0763   1.0770   1.0782   1.0802
     1.0811   1.0830   1.0833   1.0832   1.0827   1.0803   1.0777   1.0728
     1.0656   1.0630   1.0540   1.0522   1.0262   1.0102   0.9858   0.9032
     0.8516   0.8328   0.7816   0.7490   0.6765   0.6407   0.5540   0.4955
     0.4487   0.4327   0.3183   0.2989   0.2253   0.1995   0.1827   0.1510
     0.1094   0.0753   0.0644   0.0511   0.0397   0.0356   0.0232   0.0185
     0.0159   0.0097   0.0072   0.0059   0.0050   0.0040   0.0035   0.0031
     0.0025   0.0023   0.0018   0.0015   0.0014   0.0011   0.0008   0.0007
     0.0006   0.0005   0.0005   0.0004   0.0003   0.0003   0.0003   0.0002
     0.0002   0.0002   0.0002   0.0001   0.0001   0.0001   0.0001   0.0001
     0.0000   0.0000   0.0000   0.0000   0.0000   0.0000   0.0000   0.0000
     0.0000   0.0000   0.0000   0.0000   0.0000   0.0000   0.0000   0.0000
     0.0000   0.0000   0.0000   0.0000   0.0000   0.0000   0.0000   0.0000
     0.0000   0.0000   0.0000   0.0000   0.0000   0.0000   0.0000   0.0000
     0.0000   0.0000   0.0000   0.0000   0.0000   0.0000   0.0000   0.0000
     0.0000   0.0000   0.0000   0.0000

          k = 0.0000-0.5038 0.0022 (136548 PWs)   bands (ev):

    -6.0720  -5.9455  -5.7228  -5.6538  -5.6003  -5.5642  -5.5070  -5.4105
    -5.4041  -5.3226  -5.2344  -5.1580  -5.1095  -5.0853  -5.0628  -5.0218
    -4.9601  -4.8972  -4.8783  -4.8637  -4.7294  -4.6202  -4.5964  -4.5646
    -4.5335  -4.5099  -4.4749  -4.4339  -4.3841  -4.3391  -4.2870  -4.2472
    -4.2194  -4.1942  -4.1833  -4.1249  -4.0906  -4.0703  -4.0492  -4.0278
    -4.0146  -3.9722  -3.9364  -3.9016  -3.8626  -3.8256  -3.7945  -3.7578
    -3.7439  -3.7151  -3.6934  -3.6526  -3.6201  -3.6166  -3.6014  -3.5554
    -3.5123  -3.4705  -3.4449  -3.4236  -3.4005  -3.3621  -3.3336  -3.3151
    -3.2877  -3.2572  -3.2120  -3.1761  -3.1576  -3.1387  -3.0802  -3.0384
    -3.0035  -2.9899  -2.9380  -2.9178  -2.8805  -2.8594  -2.8417  -2.7940
    -2.7450  -2.7292  -2.6859  -2.6777  -2.6158  -2.5898  -2.5531  -2.5496
    -2.5427  -2.4287  -2.4272  -2.4087  -2.3824  -2.3390  -2.3197  -2.2650
    -2.2213  -2.2132  -2.1831  -2.1472  -2.1053  -2.0383  -2.0103  -1.9897
    -1.9585  -1.9297  -1.8735  -1.8639  -1.8012  -1.7875  -1.7736  -1.7049
    -1.6952  -1.6349  -1.5961  -1.5473  -1.5126  -1.4698  -1.4113  -1.3957
    -1.3592  -1.3086  -1.2843  -1.2825  -1.2499  -1.1987  -1.1600  -1.1376
    -1.1264  -1.0987  -1.0201  -1.0166  -0.9819  -0.9642  -0.9111  -0.9019
    -0.8525  -0.8373  -0.8049  -0.7608  -0.7387  -0.6629  -0.6017  -0.5791
    -0.5449  -0.5228  -0.5079  -0.4498  -0.4166  -0.3741  -0.3551  -0.3343
    -0.2952  -0.2619  -0.2429  -0.2162  -0.1641  -0.1375  -0.0927  -0.0588
    -0.0272   0.0131   0.0161   0.0590   0.0844   0.1148   0.1457   0.1785
     0.2302   0.2554   0.2685   0.2936   0.3086   0.3967   0.4093   0.4448
     0.4884   0.5311   0.5524   0.6111   0.6268   0.6391   0.6655   0.7225
     0.7503   0.7667   0.8147   0.8830   0.8950   0.9214   0.9793   1.0080
     1.0295   1.0578   1.0933   1.1149   1.1510   1.1597   1.1755   1.1932
     1.2398   1.2676   1.2811   1.3057   1.3521   1.4063   1.4299   1.4495
     1.4786   1.4946   1.5044   1.5284   1.5748   1.6157   1.6367   1.6881
     1.7126   1.7193   1.7303   1.7752   1.7934   1.8099   1.8700   1.8807
     1.9170   1.9439   1.9621   1.9732   1.9912   2.0347   2.0801   2.0889
     2.1197   2.1765   2.1889   2.2221   2.2374   2.2651   2.2703   2.2767
     2.3142   2.3363   2.3432   2.3758   2.3912   2.3972   2.4041   2.4463
     2.4547   2.4806   2.5089   2.5170   2.5431   2.5678   2.5728   2.6071
     2.6253   2.6396   2.6551   2.6702   2.6847   2.6892   2.6982   2.7350
     2.7641   2.7720   2.8037   2.8197   2.8207   2.8374   2.8493   2.8661
     2.8877   2.8956   2.9228   2.9353   2.9623   2.9772   2.9868   3.0198
     3.0242   3.0561   3.0654   3.0718   3.1090   3.1203   3.1393   3.1437
     3.1712   3.1814   3.1883   3.2171   3.2295   3.2612   3.2874   3.3030
     3.3056   3.3094   3.3264   3.3298   3.3634   3.3888   3.4083   3.4235
     3.4322   3.4368   3.4573   3.4756   3.5122   3.5270   3.5374   3.5495
     3.5639   3.5762   3.5921   3.6117   3.6361   3.6509   3.6592   3.6621
     3.6780   3.6886   3.7080   3.7283   3.7386   3.7628   3.7700   3.7822
     3.8148   3.8214   3.8295   3.8462   3.8584   3.8697   3.8774   3.8975
     3.9168   3.9342   3.9468   3.9603   3.9755   3.9959   4.0074   4.0258
     4.0341   4.0506   4.0806   4.0823   4.1098   4.1147   4.1288   4.1414
     4.1548   4.1797   4.1827   4.1956   4.2149   4.2263   4.2377   4.2721
     4.2811   4.3120   4.3153   4.3365   4.3608   4.3741   4.3791   4.3857
     4.3976   4.4108   4.4155   4.4472   4.4541   4.4582   4.4818   4.4873
     4.5233   4.5280   4.5489   4.5529   4.5614   4.5843   4.6101   4.6166
     4.6425   4.6588   4.6830   4.6886   4.6974   4.7156   4.7476   4.7628
     4.7846   4.7967   4.8083   4.8347   4.8626   4.8667   4.8810   4.8941
     4.9295   4.9449   4.9553   4.9657   4.9765   5.0067   5.0385   5.0545
     5.0572   5.0710   5.0956   5.1116   5.1418   5.1644   5.1834   5.2062
     5.2401   5.2606   5.2712   5.2994   5.3247   5.3512   5.3699   5.3851
     5.4043   5.4487   5.5417   5.5630   5.5858   5.6437   5.6574   5.7272
     5.7472   5.8177   5.8447   5.9120   5.9848   6.0148   6.0555   6.0935
     6.1683   6.2353   6.2668   6.3354   6.3808   6.4335   6.4981   6.5948
     6.6257   6.7082   6.7916   6.8160   6.9244   6.9534   6.9801   7.0067
     7.0508   7.0693   7.1189   7.1453   7.1946   7.2148   7.2425   7.3094
     7.3245   7.3561   7.3647   7.3873   7.4180   7.4341   7.4611   7.4867
     7.4999   7.5088   7.5408   7.5609   7.5685   7.5882   7.5990   7.6477
     7.6710   7.6862   7.6941   7.7187   7.7254   7.7327   7.7770   7.7897
     7.8201   7.8254   7.8621   7.8711   7.8767   7.9005   7.9094   7.9307
     7.9460   7.9801   7.9976   8.0069   8.0174   8.0289   8.0608   8.0724
     8.0764   8.0935   8.1293   8.1408   8.1483   8.1610   8.1881   8.2031
     8.2062   8.2343   8.2597   8.2706   8.2918   8.3148   8.3304   8.3509
     8.3585   8.3776   8.3976   8.4029   8.4174   8.4288   8.4617   8.4737
     8.4970   8.5058   8.5141   8.5362

     occupation numbers 
     1.0000   1.0000   1.0000   1.0000   1.0000   1.0000   1.0000   1.0000
     1.0000   1.0000   1.0000   1.0000   1.0000   1.0000   1.0000   1.0000
     1.0000   1.0000   1.0000   1.0000   1.0000   1.0000   1.0000   1.0000
     1.0000   1.0000   1.0000   1.0000   1.0000   1.0000   1.0000   1.0000
     1.0000   1.0000   1.0000   1.0000   1.0000   1.0000   1.0000   1.0000
     1.0000   1.0000   1.0000   1.0000   1.0000   1.0000   1.0000   1.0000
     1.0000   1.0000   1.0000   1.0000   1.0000   1.0000   1.0000   1.0000
     1.0000   1.0000   1.0000   1.0000   1.0000   1.0000   1.0000   1.0000
[...]
     atom   46 type  1   force =    -0.00000187    0.00000322    0.00000460
     atom   47 type  1   force =     0.00001006   -0.00000503   -0.00000585
     atom   48 type  1   force =     0.00000589    0.00000542    0.00000003
     atom   49 type  1   force =     0.00000652   -0.00000621   -0.00000726
     atom   50 type  1   force =    -0.00000407    0.00000134    0.00000092
     atom   51 type  1   force =    -0.00001200    0.00000880    0.00000385
     atom   52 type  1   force =     0.00000679   -0.00000074    0.00000416
     atom   53 type  1   force =     0.00000675    0.00000443    0.00000272
     atom   54 type  1   force =     0.00000363    0.00000565    0.00000455
     atom   55 type  1   force =    -0.00000729   -0.00000038   -0.00000390
     atom   56 type  1   force =     0.00000542   -0.00000565    0.00000361
     atom   57 type  1   force =    -0.00000463    0.00000569    0.00000181
     atom   58 type  1   force =     0.00000079   -0.00000599    0.00000484
     atom   59 type  1   force =    -0.00000481   -0.00000542    0.00000153
     atom   60 type  1   force =     0.00000552    0.00000325    0.00000360
     atom   61 type  1   force =     0.00000362   -0.00000488   -0.00000595
     atom   62 type  1   force =     0.00001161    0.00000216   -0.00000500
     atom   63 type  1   force =    -0.00000663   -0.00000212   -0.00000364
     atom   64 type  1   force =     0.00000273   -0.00000083    0.00000437
     atom   65 type  1   force =     0.00000654   -0.00000309    0.00000561
     atom   66 type  1   force =     0.00000980    0.00000391   -0.00000074
     atom   67 type  1   force =    -0.00000173   -0.00000012    0.00000313
     atom   68 type  1   force =    -0.00000033    0.00000339   -0.00000210
     atom   69 type  1   force =    -0.00000103    0.00000070   -0.00000462
     atom   70 type  1   force =    -0.00000980   -0.00000747   -0.00000396
     atom   71 type  1   force =     0.00000782   -0.00000110   -0.00000294
     atom   72 type  1   force =    -0.00000809   -0.00000056   -0.00000280
     atom   73 type  1   force =     0.00001215    0.00000601   -0.00000278
     atom   74 type  1   force =     0.00000779    0.00000554    0.00000044
     atom   75 type  1   force =     0.00000078   -0.00000316    0.00000419
     atom   76 type  1   force =     0.00000097   -0.00000265    0.00000775
     atom   77 type  1   force =     0.00000675   -0.00000499   -0.00000198
     atom   78 type  1   force =     0.00001007    0.00000423    0.00000386
     atom   79 type  1   force =     0.00000579    0.00000004    0.00000094
     atom   80 type  1   force =    -0.00000334   -0.00000199   -0.00000027
     atom   81 type  1   force =     0.00000317   -0.00000561   -0.00000207
     atom   82 type  1   force =    -0.00000377   -0.00000164    0.00000403
     atom   83 type  1   force =    -0.00000820    0.00000203    0.00000045
     atom   84 type  1   force =     0.00000087   -0.00000263    0.00000175
     atom   85 type  1   force =    -0.00000615    0.00000528   -0.00001013
     atom   86 type  1   force =    -0.00000687   -0.00000628   -0.00000263
     atom   87 type  1   force =     0.00001136    0.00000192   -0.00000005
     atom   88 type  1   force =     0.00000752    0.00000127    0.00000497
     atom   89 type  1   force =     0.00000306    0.00000549   -0.00000026
     atom   90 type  1   force =    -0.00001039   -0.00000512   -0.00001011
     atom   91 type  1   force =     0.00000396   -0.00000655    0.00000207
     atom   92 type  1   force =     0.00000179    0.00000738   -0.00000263
     atom   93 type  1   force =     0.00000781    0.00000368    0.00000176
     atom   94 type  1   force =     0.00000467    0.00000246    0.00000053
     atom   95 type  1   force =     0.00000507   -0.00000395   -0.00000483
     atom   96 type  1   force =    -0.00001019    0.00000300    0.00000316
     atom   97 type  1   force =     0.00000262    0.00000578    0.00000343
     atom   98 type  1   force =     0.00000922    0.00000181   -0.00000538
     atom   99 type  1   force =     0.00000844    0.00000545   -0.00000817
     atom  100 type  1   force =     0.00000247   -0.00000219    0.00000304
     atom  101 type  1   force =     0.00000181   -0.00000165   -0.00000058
     atom  102 type  1   force =     0.00000989    0.00000164   -0.00000206
     atom  103 type  1   force =     0.00000399   -0.00000519   -0.00000193
     atom  104 type  1   force =    -0.00000552   -0.00000435   -0.00001011
     atom  105 type  1   force =    -0.00000074   -0.00000531   -0.00000873
     atom  106 type  1   force =    -0.00001113    0.00000166   -0.00000405
     atom  107 type  1   force =     0.00000522   -0.00000160    0.00000598
     atom  108 type  1   force =     0.00000345   -0.00000353    0.00000278
     atom  109 type  1   force =    -0.00000257   -0.00000087   -0.00001176
     atom  110 type  1   force =     0.00000620   -0.00000404    0.00000112
     atom  111 type  1   force =    -0.00000583    0.00000334    0.00000465
     atom  112 type  1   force =     0.00000127   -0.00000412   -0.00000380
     atom  113 type  1   force =    -0.00000360   -0.00000222    0.00000833
     atom  114 type  1   force =    -0.00000729   -0.00000508    0.00000664
     atom  115 type  1   force =    -0.00001231    0.00000365   -0.00000534
     atom  116 type  1   force =     0.00000610    0.00000166    0.00000094
     atom  117 type  1   force =     0.00000856   -0.00000296    0.00000469
     atom  118 type  1   force =     0.00001098    0.00000005    0.00000113
     atom  119 type  1   force =    -0.00000118   -0.00000469    0.00000380
     atom  120 type  1   force =     0.00000359   -0.00000392    0.00001171
     atom  121 type  1   force =    -0.00000631   -0.00000632   -0.00000409
     atom  122 type  1   force =     0.00000376    0.00000115    0.00000191
     atom  123 type  1   force =     0.00000129    0.00000282    0.00000374
     atom  124 type  1   force =     0.00000708   -0.00000617   -0.00000424
     atom  125 type  1   force =    -0.00000604   -0.00000366   -0.00000458
     atom  126 type  1   force =    -0.00000383    0.00000482    0.00000165
     atom  127 type  1   force =    -0.00001038   -0.00000847    0.00000391
     atom  128 type  1   force =     0.00000071    0.00000223   -0.00000002
     atom  129 type  1   force =     0.00000321    0.00000472    0.00000278
     atom  130 type  1   force =    -0.00000494   -0.00000703    0.00000447
     atom  131 type  1   force =     0.00000252   -0.00000575   -0.00000651
     atom  132 type  1   force =     0.00000038    0.00000383    0.00000423
     atom  133 type  1   force =     0.00000563   -0.00000563    0.00000604
     atom  134 type  1   force =    -0.00000476   -0.00000253   -0.00000309
     atom  135 type  1   force =     0.00000332   -0.00000131    0.00000194
     atom  136 type  1   force =     0.00000850   -0.00000710   -0.00000684
     atom  137 type  1   force =     0.00000959   -0.00000465   -0.00000385
     atom  138 type  1   force =     0.00001040    0.00000041   -0.00000034
     atom  139 type  1   force =    -0.00000248   -0.00000664   -0.00000156
     atom  140 type  1   force =     0.00000055    0.00000244    0.00000243
     atom  141 type  1   force =    -0.00000267    0.00000396    0.00000076
     atom  142 type  1   force =    -0.00000804   -0.00000273    0.00000042
     atom  143 type  1   force =     0.00000422   -0.00000167    0.00000965
     atom  144 type  1   force =     0.00000510   -0.00000639   -0.00000519
     atom  145 type  1   force =     0.00001270    0.00000576   -0.00000391
     atom  146 type  1   force =    -0.00000054   -0.00000657   -0.00000422
     atom  147 type  1   force =    -0.00000672   -0.00000473   -0.00000137
     atom  148 type  1   force =    -0.00000874    0.00000446   -0.00000528
     atom  149 type  1   force =     0.00000720    0.00000501    0.00000239
     atom  150 type  1   force =    -0.00000393   -0.00000187    0.00000339
     atom  151 type  1   force =    -0.00001123    0.00000629   -0.00000334
     atom  152 type  1   force =     0.00000491    0.00000154    0.00000200
     atom  153 type  1   force =    -0.00000061   -0.00000803   -0.00000431
     atom  154 type  1   force =     0.00000414   -0.00000197   -0.00000054
     atom  155 type  1   force =    -0.00000140    0.00000010    0.00000124
     atom  156 type  1   force =    -0.00000656    0.00000548    0.00000068
     atom  157 type  1   force =     0.00000564   -0.00000425   -0.00000781
     atom  158 type  1   force =     0.00000066   -0.00000029   -0.00000111
     atom  159 type  1   force =     0.00000465   -0.00000203    0.00000596
     atom  160 type  1   force =    -0.00000517    0.00000493   -0.00000079
     atom  161 type  1   force =    -0.00000056    0.00000560   -0.00000265
     atom  162 type  1   force =    -0.00000515   -0.00000754    0.00000600
     atom  163 type  1   force =    -0.00000772    0.00000609    0.00000352
     atom  164 type  1   force =     0.00000144   -0.00000354   -0.00000116
     atom  165 type  1   force =     0.00000397    0.00000004   -0.00000352
     atom  166 type  1   force =     0.00001464    0.00000570   -0.00000355
     atom  167 type  1   force =    -0.00000232   -0.00000190   -0.00000063
     atom  168 type  1   force =     0.00000765   -0.00000343   -0.00000436
     atom  169 type  1   force =     0.00000450    0.00000487   -0.00000248
     atom  170 type  1   force =     0.00000204    0.00000300    0.00000261
     atom  171 type  1   force =    -0.00000903   -0.00000460    0.00000652
     atom  172 type  1   force =     0.00000544    0.00000548   -0.00000505
     atom  173 type  1   force =    -0.00000714    0.00000541   -0.00000065
     atom  174 type  1   force =    -0.00000635    0.00000448    0.00000332
     atom  175 type  1   force =     0.00000753   -0.00000262    0.00000654
     atom  176 type  1   force =    -0.00000423   -0.00000830    0.00000386
     atom  177 type  1   force =    -0.00000356   -0.00000553    0.00000770
     atom  178 type  1   force =     0.00000853    0.00000411   -0.00000127
     atom  179 type  1   force =    -0.00000213    0.00000652    0.00000104
     atom  180 type  1   force =    -0.00001311   -0.00000284    0.00000206
     atom  181 type  1   force =    -0.00000845    0.00000154    0.00000237
     atom  182 type  1   force =    -0.00000496   -0.00000347    0.00000726
     atom  183 type  1   force =     0.00000875   -0.00000425    0.00000579
     atom  184 type  1   force =    -0.00000064   -0.00000234   -0.00000769
     atom  185 type  1   force =    -0.00000824    0.00000615    0.00000315
     atom  186 type  1   force =     0.00000449    0.00000388    0.00000346
     atom  187 type  1   force =     0.00000912    0.00000610    0.00000122
     atom  188 type  1   force =    -0.00001016   -0.00000025    0.00000745
     atom  189 type  1   force =    -0.00000564    0.00000965    0.00000484
     atom  190 type  1   force =     0.00000987    0.00000104   -0.00000070
     atom  191 type  1   force =    -0.00000158    0.00000030   -0.00000466
     atom  192 type  1   force =     0.00000052   -0.00000708    0.00000114
     atom  193 type  1   force =    -0.00000632   -0.00000417   -0.00000329
     atom  194 type  1   force =     0.00000602    0.00000200    0.00000224
     atom  195 type  1   force =    -0.00000470   -0.00000669    0.00000489
     atom  196 type  1   force =     0.00000956   -0.00000749   -0.00000026
     atom  197 type  1   force =     0.00000742   -0.00000230   -0.00000365
     atom  198 type  1   force =    -0.00000218    0.00000580   -0.00000713
     atom  199 type  1   force =     0.00000471    0.00000003    0.00000208
     atom  200 type  1   force =     0.00000541   -0.00000232   -0.00000481
     atom  201 type  1   force =    -0.00000549    0.00000297    0.00000128
     atom  202 type  1   force =    -0.00000843    0.00000542    0.00000690
     atom  203 type  1   force =     0.00000238    0.00000493   -0.00000427
     atom  204 type  1   force =    -0.00000772    0.00000740   -0.00000148
     atom  205 type  1   force =     0.00000679    0.00000253    0.00000280
     atom  206 type  1   force =    -0.00000421   -0.00000645   -0.00000961
     atom  207 type  1   force =    -0.00000607   -0.00000245   -0.00000485
     atom  208 type  1   force =     0.00000753    0.00000384    0.00000051
     atom  209 type  1   force =    -0.00000838    0.00000033   -0.00000409
     atom  210 type  1   force =     0.00000683   -0.00000054   -0.00000008
     atom  211 type  1   force =    -0.00000923    0.00000591   -0.00000293
     atom  212 type  1   force =    -0.00000470   -0.00000540   -0.00000675
     atom  213 type  1   force =    -0.00000813    0.00000368    0.00000204
     atom  214 type  1   force =     0.00000924    0.00000513   -0.00000365
     atom  215 type  1   force =    -0.00000402   -0.00000013    0.00000517
     atom  216 type  1   force =     0.00000279   -0.00000756    0.00000350
     atom  217 type  2   force =     0.00000104   -0.00000181    0.00000055
     atom  218 type  2   force =    -0.00000126   -0.00000228   -0.00000069
     atom  219 type  2   force =    -0.00000216   -0.00000179    0.00000184
     atom  220 type  2   force =     0.00000003    0.00000142    0.00000252
     atom  221 type  2   force =     0.00000019   -0.00000033   -0.00000142
     atom  222 type  2   force =    -0.00000199    0.00000024    0.00000102
     atom  223 type  2   force =     0.00000009   -0.00000184    0.00000089
     atom  224 type  2   force =     0.00000125    0.00000227   -0.00000015
     atom  225 type  2   force =     0.00000239   -0.00000096   -0.00000026
     atom  226 type  2   force =    -0.00000098   -0.00000170    0.00000292
     atom  227 type  2   force =    -0.00000322   -0.00000219    0.00000073
     atom  228 type  2   force =    -0.00000013   -0.00000144    0.00000256
     atom  229 type  2   force =    -0.00000172   -0.00000158   -0.00000174
     atom  230 type  2   force =     0.00000085   -0.00000132    0.00000081
     atom  231 type  2   force =    -0.00000035   -0.00000157    0.00000123
     atom  232 type  2   force =    -0.00000121   -0.00000181    0.00000098
     atom  233 type  2   force =    -0.00000121   -0.00000015    0.00000138
     atom  234 type  2   force =    -0.00000069   -0.00000143    0.00000104
     atom  235 type  2   force =     0.00000001    0.00000034   -0.00000035
     atom  236 type  2   force =    -0.00000088    0.00000169   -0.00000041
     atom  237 type  2   force =    -0.00000084    0.00000148    0.00000035
     atom  238 type  2   force =    -0.00000063   -0.00000005    0.00000107

     Total force =     0.210138     Total SCF correction =     0.000137


     Computing stress (Cartesian axis) and pressure

          total   stress  (Ry/bohr**3)                   (kbar)     P=   13.68
   0.00007158  -0.00003419   0.00002060         10.53     -5.03      3.03
  -0.00003419   0.00008694  -0.00003124         -5.03     12.79     -4.60
   0.00002060  -0.00003124   0.00012043          3.03     -4.60     17.72

     kinetic stress (kbar)   2309.47     -2.89      3.09
                               -2.89   2310.08     -5.29
                                3.09     -5.29   2320.48

     local   stress (kbar)  -1366.04     37.64     -0.36
                               37.64  -1267.25    -41.18
                               -0.36    -41.18  -1282.81

     nonloc. stress (kbar)   2544.47      4.43     -1.41
                                4.43   2546.15      1.69
                               -1.41      1.69   2548.57

     hartree stress (kbar)    275.09    -19.13      5.41
                              -19.13    232.58     16.46
                                5.41     16.46    237.07

     exc-cor stress (kbar)   -813.24     -0.17     -0.07
                               -0.17   -813.32     -0.06
                               -0.07     -0.06   -813.37

     corecor stress (kbar)      0.00      0.00      0.00
                                0.00      0.00      0.00
                                0.00      0.00      0.00

     ewald   stress (kbar)  -2939.22    -24.91     -3.63
                              -24.91  -2995.45     23.78
                               -3.63     23.78  -2992.22

     hubbard stress (kbar)      0.00      0.00      0.00
                                0.00      0.00      0.00
                                0.00      0.00      0.00

     london  stress (kbar)      0.00      0.00      0.00
                                0.00      0.00      0.00
                                0.00      0.00      0.00

     DFT-D3  stress (kbar)      0.00      0.00      0.00
                                0.00      0.00      0.00
                                0.00      0.00      0.00

     XDM     stress (kbar)      0.00      0.00      0.00
                                0.00      0.00      0.00
                                0.00      0.00      0.00

     dft-nl  stress (kbar)      0.00      0.00      0.00
                                0.00      0.00      0.00
                                0.00      0.00      0.00

     TS-vdW  stress (kbar)      0.00      0.00      0.00
                                0.00      0.00      0.00
                                0.00      0.00      0.00



     Writing output data file amorph_optimize3.save

     init_run     :    282.95s CPU    288.39s WALL (       1 calls)
     electrons    :  14341.11s CPU  14711.01s WALL (       1 calls)
     forces       :     92.95s CPU     93.99s WALL (       1 calls)
     stress       :    565.99s CPU    571.20s WALL (       1 calls)

     Called by init_run:
     wfcinit      :    267.86s CPU    273.17s WALL (       1 calls)
     wfcinit:atom :      0.71s CPU      1.50s WALL (       8 calls)
     wfcinit:wfcr :    255.19s CPU    258.80s WALL (       8 calls)
     potinit      :      6.17s CPU      6.22s WALL (       1 calls)

     Called by electrons:
     c_bands      :  13162.57s CPU  13513.46s WALL (      30 calls)
     sum_band     :   1168.05s CPU   1186.10s WALL (      30 calls)
     v_of_rho     :      8.68s CPU      8.81s WALL (      30 calls)
     v_h          :      0.55s CPU      0.56s WALL (      30 calls)
     v_xc         :      8.13s CPU      8.25s WALL (      30 calls)
     mix_rho      :      1.82s CPU      2.17s WALL (      30 calls)

     Called by c_bands:
     init_us_2    :     35.13s CPU     37.91s WALL (     504 calls)
     cegterg      :  13079.70s CPU  13388.58s WALL (     240 calls)

     Called by sum_band:

     Called by *egterg:
     h_psi        :   7396.82s CPU   7481.29s WALL (    1104 calls)
     g_psi        :     12.53s CPU     12.62s WALL (     856 calls)
     cdiaghg      :   2129.84s CPU   2145.17s WALL (    1088 calls)
     cegterg:over :   1531.74s CPU   1547.00s WALL (     856 calls)
     cegterg:upda :    901.84s CPU    916.37s WALL (     856 calls)
     cegterg:last :    624.65s CPU    633.40s WALL (     240 calls)

     Called by h_psi:
     h_psi:pot    :   7367.61s CPU   7448.80s WALL (    1104 calls)
     h_psi:calbec :   1355.52s CPU   1374.39s WALL (    1104 calls)
     vloc_psi     :   4705.39s CPU   4756.41s WALL (    1104 calls)
     add_vuspsi   :   1306.68s CPU   1317.99s WALL (    1104 calls)

     General routines
     calbec       :   1490.44s CPU   1510.17s WALL (    1144 calls)
     fft          :      4.90s CPU      5.00s WALL (     339 calls)
     fftw         :   5180.74s CPU   5235.57s WALL (  712532 calls)

     Parallel routines
     fft_scatt_xy :    844.60s CPU    853.33s WALL (  712871 calls)
     fft_scatt_yz :    934.18s CPU    946.20s WALL (  712871 calls)

     PWSCF        :     4h14m CPU        4h21m WALL


   This run was terminated on:  12:37:45   7Nov2020            

=------------------------------------------------------------------------------=
   JOB DONE.
=------------------------------------------------------------------------------=
