
     Program PWSCF v.6.2 (svn rev. 14038) starts on  7Nov2020 at  8:40:25 

     This program is part of the open-source Quantum ESPRESSO suite
     for quantum simulation of materials; please cite
         "P. Giannozzi et al., J. Phys.:Condens. Matter 21 395502 (2009);
         "P. Giannozzi et al., J. Phys.:Condens. Matter 29 465901 (2017);
          URL http://www.quantum-espresso.org", 
     in publications or presentations arising from this work. More details at
     http://www.quantum-espresso.org/quote

     Parallel version (MPI), running on     8 processors

     MPI processes distributed on     1 nodes
     R & G space division:  proc/nbgrp/npool/nimage =       8
     Waiting for input...
     Reading input from standard input
Warning: card &IONS ignored
Warning: card / ignored

     Current dimensions of program PWSCF are:
     Max number of different atomic species (ntypx) = 10
     Max number of k-points (npk) =  40000
     Max angular momentum in pseudopotentials (lmaxx) =  3

     Subspace diagonalization in iterative solution of the eigenvalue problem:
     a serial algorithm will be used


     Parallelization info
     --------------------
     sticks:   dense  smooth     PW     G-vecs:    dense   smooth      PW
     Min         737     737    195                42485    42485    5745
     Max         739     739    197                42486    42486    5746
     Sum        5901    5901   1565               339883   339883   45961



     bravais-lattice index     =            0
     lattice parameter (alat)  =      20.9873  a.u.
     unit-cell volume          =    9244.1971 (a.u.)^3
     number of atoms/cell      =           72
     number of atomic types    =            2
     number of electrons       =       264.00
     number of Kohn-Sham states=          158
     kinetic-energy cutoff     =      42.0000  Ry
     charge density cutoff     =     168.0000  Ry
     convergence threshold     =      1.0E-08
     mixing beta               =       0.3000
     number of iterations used =            8  plain     mixing
     Exchange-correlation      = SLA-PW-PBX-PBC ( 1  4  3  4 0 0)

     celldm(1)=  20.987292  celldm(2)=   0.000000  celldm(3)=   0.000000
     celldm(4)=   0.000000  celldm(5)=   0.000000  celldm(6)=   0.000000

     crystal axes: (cart. coord. in units of alat)
               a(1) = (   1.000000   0.000000   0.000000 )  
               a(2) = (   0.000000   1.000000   0.000000 )  
               a(3) = (   0.000000   0.000000   1.000000 )  

     reciprocal axes: (cart. coord. in units 2 pi/alat)
               b(1) = (  1.000000  0.000000  0.000000 )  
               b(2) = (  0.000000  1.000000  0.000000 )  
               b(3) = (  0.000000  0.000000  1.000000 )  


     PseudoPot. # 1 for Si read from file:
     ./Si.pbe-hgh.UPF
     MD5 check sum: 9a9f0f6e09139bfdb36b03ff6bc35900
     Pseudo is Norm-conserving, Zval =  4.0
     Generated in analytical, separable form
     Using radial grid of 1141 points,  3 beta functions with: 
                l(1) =   0
                l(2) =   0
                l(3) =   1

     PseudoPot. # 2 for H  read from file:
     ./H.pbe-hgh.UPF
     MD5 check sum: 5f350582108a937bec95f27f5610ab08
     Pseudo is Norm-conserving, Zval =  1.0
     Generated in analytical, separable form
     Using radial grid of  929 points,  0 beta functions with: 

     atomic species   valence    mass     pseudopotential
        Si             4.00    28.08000     Si( 1.00)
        H              1.00     1.00784     H ( 1.00)

     No symmetry found


                                    s                        frac. trans.

      isym =  1     identity                                     

 cryst.   s( 1) = (     1          0          0      )
                  (     0          1          0      )
                  (     0          0          1      )

 cart.    s( 1) = (  1.0000000  0.0000000  0.0000000 )
                  (  0.0000000  1.0000000  0.0000000 )
                  (  0.0000000  0.0000000  1.0000000 )


   Cartesian axes

     site n.     atom                  positions (alat units)
         1           Si  tau(   1) = (   0.9728430   0.7221950   0.5722100  )
         2           Si  tau(   2) = (   0.9832210   0.4213620   0.1402280  )
         3           Si  tau(   3) = (   0.9210040   0.5355280   0.6556510  )
         4           Si  tau(   4) = (   0.4379240   0.3670740   0.0427325  )
         5           Si  tau(   5) = (   0.1030910   0.2621320   0.0575938  )
         6           Si  tau(   6) = (   0.3400770   0.6977910   0.0502784  )
         7           Si  tau(   7) = (   0.1343260   0.0270432   0.3006400  )
         8           Si  tau(   8) = (   0.4291510   0.2420600   0.4171370  )
         9           Si  tau(   9) = (   0.9013130   0.1813310   0.7812080  )
        10           Si  tau(  10) = (   0.2164970   0.9606830   0.6284790  )
        11           Si  tau(  11) = (   0.3736160   0.5289880   0.1731860  )
        12           Si  tau(  12) = (   0.1756840   0.7549920   0.5987720  )
        13           Si  tau(  13) = (   0.8793550   0.8571720   0.8741450  )
        14           Si  tau(  14) = (   0.4237670   0.9476050   0.6009000  )
        15           Si  tau(  15) = (   0.5071500   0.8320600   0.7607440  )
        16           Si  tau(  16) = (   0.8503690   0.8630630   0.6661810  )
        17           Si  tau(  17) = (   0.0634404   0.5035300   0.8165790  )
        18           Si  tau(  18) = (   0.0854355   0.2851880   0.8406850  )
        19           Si  tau(  19) = (   0.6396720   0.5656810   0.9067130  )
        20           Si  tau(  20) = (   0.8879120   0.0595123   0.5985780  )
        21           Si  tau(  21) = (   0.9562160   0.7223200   0.3611560  )
        22           Si  tau(  22) = (   0.9464000   0.4031780   0.4870750  )
        23           Si  tau(  23) = (   0.7645840   0.7999400   0.3154220  )
        24           Si  tau(  24) = (   0.5324760   0.1244390   0.5606710  )
        25           Si  tau(  25) = (   0.4944540   0.9641020   0.2660640  )
        26           Si  tau(  26) = (   0.2357660   0.5269020   0.3353750  )
        27           Si  tau(  27) = (   0.6696550   0.7542840   0.6480320  )
        28           Si  tau(  28) = (   0.3381740   0.1100080   0.2759030  )
        29           Si  tau(  29) = (   0.2024300   0.9865540   0.8381590  )
        30           Si  tau(  30) = (   0.7150570   0.5591120   0.7103950  )
        31           Si  tau(  31) = (   0.6144140   0.7189380   0.4402600  )
        32           Si  tau(  32) = (   0.3628760   0.4923240   0.6416330  )
        33           Si  tau(  33) = (   0.5611810   0.2604680   0.7167530  )
        34           Si  tau(  34) = (   0.7119060   0.2392370   0.8599330  )
        35           Si  tau(  35) = (   0.0808817   0.0728417   0.5042400  )
        36           Si  tau(  36) = (   0.7959570   0.3233020   0.1735820  )
        37           Si  tau(  37) = (   0.4210270   0.6581550   0.8560790  )
        38           Si  tau(  38) = (   0.6849370   0.7277850   0.1367830  )
        39           Si  tau(  39) = (   0.1323680   0.7511600   0.0729211  )
        40           Si  tau(  40) = (   0.3064790   0.2111910   0.0971513  )
        41           Si  tau(  41) = (   0.4427090   0.8355650   0.4235610  )
        42           Si  tau(  42) = (   0.8084920   0.1110290   0.1468690  )
        43           Si  tau(  43) = (   0.7292370   0.1203840   0.4719670  )
        44           Si  tau(  44) = (   0.5398020   0.5622110   0.3050020  )
        45           Si  tau(  45) = (   0.4982760   0.8264110   0.1058850  )
        46           Si  tau(  46) = (   0.1112080   0.2782100   0.5399310  )
        47           Si  tau(  47) = (   0.1261120   0.8156150   0.2779090  )
        48           Si  tau(  48) = (   0.9989450   0.5879130   0.0051816  )
        49           Si  tau(  49) = (   0.2838680   0.3790060   0.4806220  )
        50           Si  tau(  50) = (   0.2633910   0.7239660   0.4085100  )
        51           Si  tau(  51) = (   0.0186117   0.0809401   0.1269700  )
        52           Si  tau(  52) = (   0.7764260   0.3123020   0.3882590  )
        53           Si  tau(  53) = (   0.6936580   0.0653598   0.9745740  )
        54           Si  tau(  54) = (   0.3581360   0.0848180   0.9370690  )
        55           Si  tau(  55) = (   0.8069950   0.6823530   0.9731480  )
        56           Si  tau(  56) = (   0.5212320   0.9500740   0.9398930  )
        57           Si  tau(  57) = (   0.6511810   0.3790560   0.0167652  )
        58           Si  tau(  58) = (   0.0223727   0.5188450   0.3248790  )
        59           Si  tau(  59) = (   0.5849070   0.3904680   0.4102530  )
        60           Si  tau(  60) = (   0.5679340   0.4446210   0.6145730  )
        61           Si  tau(  61) = (   0.0501773   0.9292820   0.9763950  )
        62           Si  tau(  62) = (   0.7072280   0.0031693   0.2991820  )
        63           Si  tau(  63) = (   0.2352530   0.6192090   0.7486690  )
        64           Si  tau(  64) = (   0.3978610   0.2723440   0.8472060  )
        65           H   tau(  65) = (   0.9281020   0.0689967   0.8609670  )
        66           H   tau(  66) = (   0.7865680   0.9648940   0.9174660  )
        67           H   tau(  67) = (   0.1391400   0.1524740   0.8019400  )
        68           H   tau(  68) = (   0.2584200   0.3143510   0.8487570  )
        69           H   tau(  69) = (   0.2686830   0.8633630   0.8582860  )
        70           H   tau(  70) = (   0.3406940   0.3934930   0.7414440  )
        71           H   tau(  71) = (   0.6430930   0.5932450   0.2040240  )
        72           H   tau(  72) = (   0.1414250   0.2807120   0.6885420  )

   Crystallographic axes

     site n.     atom                  positions (cryst. coord.)
         1           Si  tau(   1) = (  0.9728430  0.7221950  0.5722100  )
         2           Si  tau(   2) = (  0.9832210  0.4213620  0.1402280  )
         3           Si  tau(   3) = (  0.9210040  0.5355280  0.6556510  )
         4           Si  tau(   4) = (  0.4379240  0.3670740  0.0427325  )
         5           Si  tau(   5) = (  0.1030910  0.2621320  0.0575938  )
         6           Si  tau(   6) = (  0.3400770  0.6977910  0.0502784  )
         7           Si  tau(   7) = (  0.1343260  0.0270432  0.3006400  )
         8           Si  tau(   8) = (  0.4291510  0.2420600  0.4171370  )
         9           Si  tau(   9) = (  0.9013130  0.1813310  0.7812080  )
        10           Si  tau(  10) = (  0.2164970  0.9606830  0.6284790  )
        11           Si  tau(  11) = (  0.3736160  0.5289880  0.1731860  )
        12           Si  tau(  12) = (  0.1756840  0.7549920  0.5987720  )
        13           Si  tau(  13) = (  0.8793550  0.8571720  0.8741450  )
        14           Si  tau(  14) = (  0.4237670  0.9476050  0.6009000  )
        15           Si  tau(  15) = (  0.5071500  0.8320600  0.7607440  )
        16           Si  tau(  16) = (  0.8503690  0.8630630  0.6661810  )
        17           Si  tau(  17) = (  0.0634404  0.5035300  0.8165790  )
        18           Si  tau(  18) = (  0.0854355  0.2851880  0.8406850  )
        19           Si  tau(  19) = (  0.6396720  0.5656810  0.9067130  )
        20           Si  tau(  20) = (  0.8879120  0.0595123  0.5985780  )
        21           Si  tau(  21) = (  0.9562160  0.7223200  0.3611560  )
        22           Si  tau(  22) = (  0.9464000  0.4031780  0.4870750  )
        23           Si  tau(  23) = (  0.7645840  0.7999400  0.3154220  )
        24           Si  tau(  24) = (  0.5324760  0.1244390  0.5606710  )
        25           Si  tau(  25) = (  0.4944540  0.9641020  0.2660640  )
        26           Si  tau(  26) = (  0.2357660  0.5269020  0.3353750  )
        27           Si  tau(  27) = (  0.6696550  0.7542840  0.6480320  )
        28           Si  tau(  28) = (  0.3381740  0.1100080  0.2759030  )
        29           Si  tau(  29) = (  0.2024300  0.9865540  0.8381590  )
        30           Si  tau(  30) = (  0.7150570  0.5591120  0.7103950  )
        31           Si  tau(  31) = (  0.6144140  0.7189380  0.4402600  )
        32           Si  tau(  32) = (  0.3628760  0.4923240  0.6416330  )
        33           Si  tau(  33) = (  0.5611810  0.2604680  0.7167530  )
        34           Si  tau(  34) = (  0.7119060  0.2392370  0.8599330  )
        35           Si  tau(  35) = (  0.0808817  0.0728417  0.5042400  )
        36           Si  tau(  36) = (  0.7959570  0.3233020  0.1735820  )
        37           Si  tau(  37) = (  0.4210270  0.6581550  0.8560790  )
        38           Si  tau(  38) = (  0.6849370  0.7277850  0.1367830  )
        39           Si  tau(  39) = (  0.1323680  0.7511600  0.0729211  )
        40           Si  tau(  40) = (  0.3064790  0.2111910  0.0971513  )
        41           Si  tau(  41) = (  0.4427090  0.8355650  0.4235610  )
        42           Si  tau(  42) = (  0.8084920  0.1110290  0.1468690  )
        43           Si  tau(  43) = (  0.7292370  0.1203840  0.4719670  )
        44           Si  tau(  44) = (  0.5398020  0.5622110  0.3050020  )
        45           Si  tau(  45) = (  0.4982760  0.8264110  0.1058850  )
        46           Si  tau(  46) = (  0.1112080  0.2782100  0.5399310  )
        47           Si  tau(  47) = (  0.1261120  0.8156150  0.2779090  )
        48           Si  tau(  48) = (  0.9989450  0.5879130  0.0051816  )
        49           Si  tau(  49) = (  0.2838680  0.3790060  0.4806220  )
        50           Si  tau(  50) = (  0.2633910  0.7239660  0.4085100  )
        51           Si  tau(  51) = (  0.0186117  0.0809401  0.1269700  )
        52           Si  tau(  52) = (  0.7764260  0.3123020  0.3882590  )
        53           Si  tau(  53) = (  0.6936580  0.0653598  0.9745740  )
        54           Si  tau(  54) = (  0.3581360  0.0848180  0.9370690  )
        55           Si  tau(  55) = (  0.8069950  0.6823530  0.9731480  )
        56           Si  tau(  56) = (  0.5212320  0.9500740  0.9398930  )
        57           Si  tau(  57) = (  0.6511810  0.3790560  0.0167652  )
        58           Si  tau(  58) = (  0.0223727  0.5188450  0.3248790  )
        59           Si  tau(  59) = (  0.5849070  0.3904680  0.4102530  )
        60           Si  tau(  60) = (  0.5679340  0.4446210  0.6145730  )
        61           Si  tau(  61) = (  0.0501773  0.9292820  0.9763950  )
        62           Si  tau(  62) = (  0.7072280  0.0031693  0.2991820  )
        63           Si  tau(  63) = (  0.2352530  0.6192090  0.7486690  )
        64           Si  tau(  64) = (  0.3978610  0.2723440  0.8472060  )
        65           H   tau(  65) = (  0.9281020  0.0689967  0.8609670  )
        66           H   tau(  66) = (  0.7865680  0.9648940  0.9174660  )
        67           H   tau(  67) = (  0.1391400  0.1524740  0.8019400  )
        68           H   tau(  68) = (  0.2584200  0.3143510  0.8487570  )
        69           H   tau(  69) = (  0.2686830  0.8633630  0.8582860  )
        70           H   tau(  70) = (  0.3406940  0.3934930  0.7414440  )
        71           H   tau(  71) = (  0.6430930  0.5932450  0.2040240  )
        72           H   tau(  72) = (  0.1414250  0.2807120  0.6885420  )

     number of k points=    14  Marzari-Vanderbilt smearing, width (Ry)=  0.0500
                       cart. coord. in units 2pi/alat
        k(    1) = (   0.0000000   0.0000000   0.0000000), wk =   0.0740741
        k(    2) = (   0.0000000   0.0000000   0.3333333), wk =   0.1481481
        k(    3) = (   0.0000000   0.3333333   0.3333333), wk =   0.1481481
        k(    4) = (   0.3333333   0.3333333   0.3333333), wk =   0.1481481
        k(    5) = (   0.3333333   0.0000000   0.0000000), wk =   0.1481481
        k(    6) = (   0.0000000   0.3333333   0.0000000), wk =   0.1481481
        k(    7) = (   0.0000000  -0.3333333   0.3333333), wk =   0.1481481
        k(    8) = (   0.3333333   0.0000000  -0.3333333), wk =   0.1481481
        k(    9) = (  -0.3333333   0.0000000  -0.3333333), wk =   0.1481481
        k(   10) = (   0.3333333  -0.3333333   0.0000000), wk =   0.1481481
        k(   11) = (  -0.3333333  -0.3333333   0.0000000), wk =   0.1481481
        k(   12) = (  -0.3333333  -0.3333333   0.3333333), wk =   0.1481481
        k(   13) = (  -0.3333333   0.3333333  -0.3333333), wk =   0.1481481
        k(   14) = (   0.3333333  -0.3333333  -0.3333333), wk =   0.1481481

                       cryst. coord.
        k(    1) = (   0.0000000   0.0000000   0.0000000), wk =   0.0740741
        k(    2) = (   0.0000000   0.0000000   0.3333333), wk =   0.1481481
        k(    3) = (   0.0000000   0.3333333   0.3333333), wk =   0.1481481
        k(    4) = (   0.3333333   0.3333333   0.3333333), wk =   0.1481481
        k(    5) = (   0.3333333   0.0000000   0.0000000), wk =   0.1481481
        k(    6) = (   0.0000000   0.3333333   0.0000000), wk =   0.1481481
        k(    7) = (   0.0000000  -0.3333333   0.3333333), wk =   0.1481481
        k(    8) = (   0.3333333   0.0000000  -0.3333333), wk =   0.1481481
        k(    9) = (  -0.3333333   0.0000000  -0.3333333), wk =   0.1481481
        k(   10) = (   0.3333333  -0.3333333   0.0000000), wk =   0.1481481
        k(   11) = (  -0.3333333  -0.3333333   0.0000000), wk =   0.1481481
        k(   12) = (  -0.3333333  -0.3333333   0.3333333), wk =   0.1481481
        k(   13) = (  -0.3333333   0.3333333  -0.3333333), wk =   0.1481481
        k(   14) = (   0.3333333  -0.3333333  -0.3333333), wk =   0.1481481

     Dense  grid:   339883 G-vectors     FFT dimensions: (  90,  90,  90)

     Dynamical RAM for                 wfc:      12.80 MB

     Dynamical RAM for     wfc (w. buffer):     192.06 MB

     Dynamical RAM for           str. fact:       1.30 MB

     Dynamical RAM for           local pot:       0.00 MB

     Dynamical RAM for          nlocal pot:      25.93 MB

     Dynamical RAM for                qrad:       1.19 MB

     Dynamical RAM for          rho,v,vnew:       4.17 MB

     Dynamical RAM for               rhoin:       1.39 MB

     Dynamical RAM for            rho*nmix:      10.37 MB

     Dynamical RAM for           G-vectors:       2.76 MB

     Dynamical RAM for          h,s,v(r/c):      18.28 MB

     Dynamical RAM for          <psi|beta>:       0.77 MB

     Dynamical RAM for                 psi:      51.22 MB

     Dynamical RAM for                hpsi:      51.22 MB

     Dynamical RAM for      wfcinit/wfcrot:      44.39 MB

     Estimated static dynamical RAM per process >     244.82 MB

     Estimated max dynamical RAM per process >     366.31 MB

     Estimated total dynamical RAM >       2.86 GB

     Initial potential from superposition of free atoms

     starting charge  263.96413, renormalised to  264.00000
     Starting wfc are  264 randomized atomic wfcs

     total cpu time spent up to now is       25.9 secs

     Self-consistent Calculation

     iteration #  1     ecut=    42.00 Ry     beta= 0.30
     Davidson diagonalization with overlap
     ethr =  1.00E-02,  avg # of iterations =  3.0

     Threshold (ethr) on eigenvalues was too large:
     Diagonalizing with lowered threshold

     Davidson diagonalization with overlap
     ethr =  9.15E-04,  avg # of iterations =  1.4

     total cpu time spent up to now is      116.8 secs

     total energy              =    -512.40023883 Ry
     Harris-Foulkes estimate   =    -512.90037009 Ry
     estimated scf accuracy    <       2.38695671 Ry

     iteration #  2     ecut=    42.00 Ry     beta= 0.30
     Davidson diagonalization with overlap
     ethr =  9.04E-04,  avg # of iterations =  2.2

     total cpu time spent up to now is      157.4 secs

     total energy              =    -512.31287654 Ry
     Harris-Foulkes estimate   =    -512.51199962 Ry
     estimated scf accuracy    <       0.88842664 Ry

     iteration #  3     ecut=    42.00 Ry     beta= 0.30
     Davidson diagonalization with overlap
     ethr =  3.37E-04,  avg # of iterations =  4.7

     total cpu time spent up to now is      201.5 secs

     total energy              =    -512.30682465 Ry
     Harris-Foulkes estimate   =    -512.40146794 Ry
     estimated scf accuracy    <       0.40034799 Ry

     iteration #  4     ecut=    42.00 Ry     beta= 0.30
     Davidson diagonalization with overlap
     ethr =  1.52E-04,  avg # of iterations =  3.9

     total cpu time spent up to now is      243.0 secs

     total energy              =    -512.34226792 Ry
     Harris-Foulkes estimate   =    -512.35018046 Ry
     estimated scf accuracy    <       0.04494229 Ry

     iteration #  5     ecut=    42.00 Ry     beta= 0.30
     Davidson diagonalization with overlap
     ethr =  1.70E-05,  avg # of iterations =  9.1

     total cpu time spent up to now is      311.5 secs

     total energy              =    -512.34654104 Ry
     Harris-Foulkes estimate   =    -512.34926485 Ry
     estimated scf accuracy    <       0.01308451 Ry

     iteration #  6     ecut=    42.00 Ry     beta= 0.30
     Davidson diagonalization with overlap
     ethr =  4.96E-06,  avg # of iterations =  4.9

     total cpu time spent up to now is      363.6 secs

     total energy              =    -512.34773066 Ry
     Harris-Foulkes estimate   =    -512.34828990 Ry
     estimated scf accuracy    <       0.00343215 Ry

     iteration #  7     ecut=    42.00 Ry     beta= 0.30
     Davidson diagonalization with overlap
     ethr =  1.30E-06,  avg # of iterations =  3.0

     total cpu time spent up to now is      404.9 secs

     total energy              =    -512.34800205 Ry
     Harris-Foulkes estimate   =    -512.34807097 Ry
     estimated scf accuracy    <       0.00064003 Ry

     iteration #  8     ecut=    42.00 Ry     beta= 0.30
     Davidson diagonalization with overlap
     ethr =  2.42E-07,  avg # of iterations =  3.0

     total cpu time spent up to now is      448.2 secs

     total energy              =    -512.34805023 Ry
     Harris-Foulkes estimate   =    -512.34808661 Ry
     estimated scf accuracy    <       0.00019890 Ry

     iteration #  9     ecut=    42.00 Ry     beta= 0.30
     Davidson diagonalization with overlap
     ethr =  7.53E-08,  avg # of iterations =  3.0

     total cpu time spent up to now is      489.9 secs

     total energy              =    -512.34806893 Ry
     Harris-Foulkes estimate   =    -512.34807793 Ry
     estimated scf accuracy    <       0.00005672 Ry

     iteration # 10     ecut=    42.00 Ry     beta= 0.30
     Davidson diagonalization with overlap
     ethr =  2.15E-08,  avg # of iterations =  3.0

     total cpu time spent up to now is      530.4 secs

     total energy              =    -512.34807538 Ry
     Harris-Foulkes estimate   =    -512.34807593 Ry
     estimated scf accuracy    <       0.00000791 Ry

     iteration # 11     ecut=    42.00 Ry     beta= 0.30
     Davidson diagonalization with overlap
     ethr =  3.00E-09,  avg # of iterations =  3.0

     total cpu time spent up to now is      575.7 secs

     total energy              =    -512.34807643 Ry
     Harris-Foulkes estimate   =    -512.34807648 Ry
     estimated scf accuracy    <       0.00000166 Ry

     iteration # 12     ecut=    42.00 Ry     beta= 0.30
     Davidson diagonalization with overlap
     ethr =  6.29E-10,  avg # of iterations =  3.0

     total cpu time spent up to now is      618.1 secs

     total energy              =    -512.34807674 Ry
     Harris-Foulkes estimate   =    -512.34807671 Ry
     estimated scf accuracy    <       0.00000061 Ry

     iteration # 13     ecut=    42.00 Ry     beta= 0.30
     Davidson diagonalization with overlap
     ethr =  2.33E-10,  avg # of iterations =  3.0

     total cpu time spent up to now is      658.8 secs

     total energy              =    -512.34807687 Ry
     Harris-Foulkes estimate   =    -512.34807682 Ry
     estimated scf accuracy    <       0.00000013 Ry

     iteration # 14     ecut=    42.00 Ry     beta= 0.30
     Davidson diagonalization with overlap
     ethr =  4.79E-11,  avg # of iterations =  3.0

     total cpu time spent up to now is      701.8 secs

     total energy              =    -512.34807690 Ry
     Harris-Foulkes estimate   =    -512.34807689 Ry
     estimated scf accuracy    <       0.00000003 Ry

     iteration # 15     ecut=    42.00 Ry     beta= 0.30
     Davidson diagonalization with overlap
     ethr =  1.16E-11,  avg # of iterations =  3.0

     total cpu time spent up to now is      740.6 secs

     total energy              =    -512.34807691 Ry
     Harris-Foulkes estimate   =    -512.34807690 Ry
     estimated scf accuracy    <       0.00000001 Ry

     iteration # 16     ecut=    42.00 Ry     beta= 0.30
     Davidson diagonalization with overlap
     ethr =  3.82E-12,  avg # of iterations =  3.0

     total cpu time spent up to now is      783.2 secs

     End of self-consistent calculation

          k = 0.0000 0.0000 0.0000 ( 42499 PWs)   bands (ev):

    -6.3127  -5.5621  -5.4654  -5.4248  -5.2399  -5.1960  -5.1119  -4.7462
    -4.6517  -4.5773  -4.5587  -4.3961  -4.3301  -4.2559  -4.2195  -4.1654
    -4.0851  -4.0336  -3.8690  -3.6454  -3.4566  -3.4169  -3.3318  -3.2654
    -3.2475  -3.1173  -2.8375  -2.5619  -2.4383  -2.3220  -2.2115  -2.1346
    -2.0552  -1.9280  -1.8950  -1.7459  -1.7180  -1.5228  -1.4541  -1.3683
    -1.2892  -1.2713  -1.1129  -0.9055  -0.8736  -0.7824  -0.6855  -0.6048
    -0.4972  -0.3201  -0.2147  -0.1494  -0.1144   0.1034   0.1697   0.3791
     0.4976   0.6041   0.7316   0.7945   0.8832   0.9291   0.9739   1.0367
     1.2536   1.3910   1.4718   1.4861   1.6046   1.6747   1.7446   1.8517
     1.9050   1.9517   2.0192   2.0493   2.1300   2.1856   2.2039   2.3245
     2.3493   2.4526   2.5998   2.7320   2.7880   2.8191   2.8541   2.9369
     2.9597   3.0282   3.0927   3.1910   3.2025   3.2509   3.2921   3.3400
     3.4235   3.4454   3.4931   3.5283   3.5923   3.6329   3.6906   3.7441
     3.7782   3.8000   3.8291   3.8630   3.9566   3.9699   3.9985   4.0552
     4.0861   4.1592   4.2103   4.2516   4.2957   4.3018   4.3847   4.4007
     4.4218   4.4848   4.6068   4.6731   4.6990   4.7245   4.8706   4.9208
     5.0125   5.2113   5.2956   5.9386   6.0730   6.3894   6.4647   6.6467
     6.8335   6.8838   6.9932   7.0488   7.1085   7.1427   7.1767   7.2547
     7.2914   7.3310   7.4099   7.4466   7.4976   7.5740   7.6311   7.6613
     7.7197   7.7253   7.7761   7.8605   7.8883   7.9575

     occupation numbers 
     1.0000   1.0000   1.0000   1.0000   1.0000   1.0000   1.0000   1.0000
     1.0000   1.0000   1.0000   1.0000   1.0000   1.0000   1.0000   1.0000
     1.0000   1.0000   1.0000   1.0000   1.0000   1.0000   1.0000   1.0000
     1.0000   1.0000   1.0000   1.0000   1.0000   1.0000   1.0000   1.0000
     1.0000   1.0000   1.0000   1.0000   1.0000   1.0000   1.0000   1.0000
     1.0000   1.0000   1.0000   1.0000   1.0000   1.0000   1.0000   1.0000
     1.0000   1.0000   1.0000   1.0000   1.0000   1.0000   1.0000   1.0000
     1.0000   1.0000   1.0000   1.0000   1.0000   1.0000   1.0000   1.0000
     1.0000   1.0000   1.0000   1.0000   1.0000   1.0000   1.0000   1.0000
     1.0000   1.0000   1.0000   1.0000   1.0000   1.0000   1.0000   1.0000
     1.0000   1.0000   1.0000   1.0000   1.0000   1.0000   1.0000   1.0000
     1.0000   1.0000   1.0000   1.0000   1.0000   1.0000   1.0000   1.0001
     1.0001   1.0002   1.0002   1.0003   1.0005   1.0007   1.0010   1.0014
     1.0018   1.0020   1.0025   1.0030   1.0052   1.0056   1.0065   1.0088
     1.0102   1.0145   1.0181   1.0216   1.0257   1.0264   1.0356   1.0375
     1.0402   1.0485   1.0652   1.0733   1.0761   1.0785   1.0823   1.0783
     1.0613   0.9717   0.9104   0.2653   0.1695   0.0445   0.0305   0.0111
     0.0034   0.0024   0.0011   0.0007   0.0005   0.0003   0.0003   0.0001
     0.0001   0.0001   0.0000   0.0000   0.0000   0.0000   0.0000   0.0000
     0.0000   0.0000   0.0000   0.0000   0.0000   0.0000

          k = 0.0000 0.0000 0.3333 ( 42499 PWs)   bands (ev):

    -6.2046  -5.8872  -5.4189  -5.3423  -5.2234  -5.0931  -4.9573  -4.9259
    -4.8298  -4.7402  -4.5541  -4.4387  -4.3198  -4.1995  -4.1309  -3.9852
    -3.9602  -3.9018  -3.7803  -3.6620  -3.5688  -3.4333  -3.3348  -3.2418
    -3.0072  -2.8668  -2.7620  -2.6896  -2.5774  -2.4266  -2.3935  -2.3387
    -2.2127  -2.1183  -1.9766  -1.9090  -1.7505  -1.6445  -1.5198  -1.3394
    -1.2124  -1.1515  -1.0839  -0.9784  -0.9182  -0.6979  -0.5996  -0.5010
    -0.3257  -0.2718  -0.1508  -0.0581   0.0608   0.1168   0.2125   0.3874
     0.5112   0.6181   0.6884   0.8132   0.9299   0.9729   1.0692   1.1040
     1.1897   1.3479   1.4568   1.5471   1.6900   1.7231   1.7544   1.8167
     1.9044   1.9661   2.0444   2.1301   2.2252   2.2694   2.3026   2.3494
     2.4244   2.5093   2.5683   2.6528   2.6655   2.7407   2.7946   2.8801
     2.8963   2.9491   2.9765   3.0192   3.0634   3.1626   3.1993   3.2729
     3.2941   3.3563   3.4651   3.4673   3.4992   3.5796   3.6431   3.7165
     3.7584   3.7764   3.8274   3.8634   3.9066   3.9697   4.0094   4.0399
     4.1136   4.1590   4.2312   4.2918   4.3293   4.3463   4.3859   4.4143
     4.4492   4.5423   4.6140   4.6435   4.7374   4.7940   4.8784   5.0082
     5.0685   5.1165   5.2801   6.0577   6.1866   6.3666   6.5230   6.6293
     6.8352   6.8991   6.9641   7.0233   7.1005   7.1448   7.1984   7.2928
     7.3446   7.3619   7.4042   7.5061   7.5497   7.6041   7.6705   7.7055
     7.7697   7.8043   7.8388   7.9305   7.9404   7.9953

     occupation numbers 
     1.0000   1.0000   1.0000   1.0000   1.0000   1.0000   1.0000   1.0000
     1.0000   1.0000   1.0000   1.0000   1.0000   1.0000   1.0000   1.0000
     1.0000   1.0000   1.0000   1.0000   1.0000   1.0000   1.0000   1.0000
     1.0000   1.0000   1.0000   1.0000   1.0000   1.0000   1.0000   1.0000
     1.0000   1.0000   1.0000   1.0000   1.0000   1.0000   1.0000   1.0000
     1.0000   1.0000   1.0000   1.0000   1.0000   1.0000   1.0000   1.0000
     1.0000   1.0000   1.0000   1.0000   1.0000   1.0000   1.0000   1.0000
     1.0000   1.0000   1.0000   1.0000   1.0000   1.0000   1.0000   1.0000
     1.0000   1.0000   1.0000   1.0000   1.0000   1.0000   1.0000   1.0000
     1.0000   1.0000   1.0000   1.0000   1.0000   1.0000   1.0000   1.0000
     1.0000   1.0000   1.0000   1.0000   1.0000   1.0000   1.0000   1.0000
     1.0000   1.0000   1.0000   1.0000   1.0000   1.0000   1.0000   1.0000
     1.0000   1.0001   1.0002   1.0002   1.0003   1.0005   1.0007   1.0012
     1.0016   1.0018   1.0024   1.0030   1.0039   1.0056   1.0069   1.0081
     1.0117   1.0144   1.0198   1.0254   1.0292   1.0311   1.0357   1.0392
     1.0437   1.0564   1.0661   1.0699   1.0795   1.0827   1.0819   1.0624
     1.0438   1.0240   0.9227   0.1790   0.1099   0.0497   0.0224   0.0123
     0.0034   0.0022   0.0014   0.0009   0.0005   0.0003   0.0002   0.0001
     0.0001   0.0001   0.0000   0.0000   0.0000   0.0000   0.0000   0.0000
     0.0000   0.0000   0.0000   0.0000   0.0000   0.0000

          k = 0.0000 0.3333 0.3333 ( 42506 PWs)   bands (ev):

    -6.1060  -5.8076  -5.7524  -5.4384  -5.2322  -5.1062  -4.9393  -4.8666
    -4.7194  -4.6212  -4.5264  -4.4447  -4.4144  -4.2474  -4.1940  -4.0551
    -3.7767  -3.6963  -3.6421  -3.5598  -3.4426  -3.3281  -3.2792  -3.2085
    -3.0708  -3.0174  -2.8967  -2.7771  -2.6969  -2.6349  -2.5507  -2.4529
    -2.2914  -2.1857  -2.0997  -2.0089  -1.7453  -1.5332  -1.4482  -1.3640
    -1.1683  -1.0460  -0.9979  -0.8908  -0.7716  -0.6665  -0.5506  -0.4210
    -0.3838  -0.2717  -0.1438  -0.0605   0.0244   0.1877   0.2572   0.3663
     0.5166   0.6175   0.7598   0.8681   0.9208   0.9838   1.0429   1.1944
     1.2849   1.2982   1.4582   1.5198   1.5584   1.6417   1.7693   1.8704
     1.9430   2.0084   2.0519   2.1396   2.1772   2.2228   2.3278   2.3573
     2.4475   2.5287   2.5743   2.6436   2.6706   2.7440   2.7692   2.8100
     2.8911   2.8962   2.9311   3.0372   3.1022   3.1542   3.1930   3.2774
     3.3180   3.3583   3.4259   3.4664   3.5001   3.5295   3.6213   3.6347
     3.6835   3.7718   3.8067   3.8393   3.8860   3.9195   3.9592   4.0393
     4.0863   4.1541   4.1983   4.2638   4.2931   4.3651   4.4010   4.4419
     4.5115   4.6062   4.6368   4.6775   4.7604   4.7940   4.8322   4.9438
     5.0139   5.2475   5.3408   6.0923   6.1786   6.3207   6.5454   6.6096
     6.7213   6.8553   6.9269   6.9803   7.0395   7.1270   7.2018   7.2742
     7.3291   7.3813   7.4530   7.5204   7.5634   7.6245   7.6713   7.6928
     7.7562   7.8147   7.8841   7.9339   7.9619   8.0122

     occupation numbers 
     1.0000   1.0000   1.0000   1.0000   1.0000   1.0000   1.0000   1.0000
     1.0000   1.0000   1.0000   1.0000   1.0000   1.0000   1.0000   1.0000
     1.0000   1.0000   1.0000   1.0000   1.0000   1.0000   1.0000   1.0000
     1.0000   1.0000   1.0000   1.0000   1.0000   1.0000   1.0000   1.0000
     1.0000   1.0000   1.0000   1.0000   1.0000   1.0000   1.0000   1.0000
     1.0000   1.0000   1.0000   1.0000   1.0000   1.0000   1.0000   1.0000
     1.0000   1.0000   1.0000   1.0000   1.0000   1.0000   1.0000   1.0000
     1.0000   1.0000   1.0000   1.0000   1.0000   1.0000   1.0000   1.0000
     1.0000   1.0000   1.0000   1.0000   1.0000   1.0000   1.0000   1.0000
     1.0000   1.0000   1.0000   1.0000   1.0000   1.0000   1.0000   1.0000
     1.0000   1.0000   1.0000   1.0000   1.0000   1.0000   1.0000   1.0000
     1.0000   1.0000   1.0000   1.0000   1.0000   1.0000   1.0000   1.0000
     1.0001   1.0001   1.0001   1.0002   1.0003   1.0003   1.0006   1.0007
     1.0010   1.0017   1.0021   1.0026   1.0035   1.0042   1.0053   1.0081
     1.0102   1.0141   1.0172   1.0227   1.0255   1.0332   1.0375   1.0428
     1.0522   1.0651   1.0690   1.0738   1.0811   1.0827   1.0833   1.0753
     1.0609   0.9471   0.8723   0.1581   0.1135   0.0616   0.0198   0.0138
     0.0071   0.0029   0.0018   0.0012   0.0008   0.0004   0.0002   0.0001
     0.0001   0.0000   0.0000   0.0000   0.0000   0.0000   0.0000   0.0000
     0.0000   0.0000   0.0000   0.0000   0.0000   0.0000

          k = 0.3333 0.3333 0.3333 ( 42463 PWs)   bands (ev):

    -6.0086  -5.7615  -5.6663  -5.6042  -5.3917  -5.3014  -5.1769  -4.9805
    -4.5170  -4.4371  -4.3274  -4.2736  -4.2068  -4.1315  -4.0461  -3.9549
    -3.8878  -3.8121  -3.7079  -3.6267  -3.5123  -3.3834  -3.3024  -3.1955
    -3.0656  -3.0334  -2.9234  -2.8839  -2.7636  -2.6823  -2.5760  -2.4204
    -2.3419  -2.1950  -2.1823  -1.8652  -1.7215  -1.6494  -1.4621  -1.3820
    -1.2030  -1.1532  -1.0815  -0.8663  -0.7947  -0.6765  -0.5657  -0.4530
    -0.2764  -0.2043  -0.1177  -0.0436   0.0368   0.2644   0.3206   0.4186
     0.4729   0.5908   0.6853   0.8772   0.9842   1.0980   1.1143   1.2586
     1.3194   1.4095   1.4976   1.5970   1.6301   1.7190   1.8251   1.8439
     1.9707   2.0368   2.0818   2.1482   2.1769   2.2376   2.3697   2.4305
     2.4863   2.5474   2.5933   2.6219   2.6712   2.7080   2.8015   2.8576
     2.9075   2.9536   2.9752   2.9907   3.0329   3.0895   3.1485   3.1776
     3.2378   3.3023   3.3494   3.3935   3.4552   3.5601   3.5932   3.6295
     3.6424   3.7110   3.7280   3.7913   3.8353   3.8965   3.9300   3.9847
     4.0464   4.0960   4.1331   4.1822   4.2214   4.2435   4.3295   4.4500
     4.4801   4.5091   4.6023   4.6327   4.6862   4.7635   4.8488   4.9191
     4.9915   5.2545   5.4409   6.1280   6.2318   6.3305   6.5127   6.6399
     6.7532   6.8224   6.8856   6.9727   7.0511   7.1165   7.1869   7.2501
     7.3177   7.3894   7.4956   7.5465   7.5835   7.6283   7.7018   7.7528
     7.7860   7.8330   7.8768   7.9403   8.0019   8.0371

     occupation numbers 
     1.0000   1.0000   1.0000   1.0000   1.0000   1.0000   1.0000   1.0000
     1.0000   1.0000   1.0000   1.0000   1.0000   1.0000   1.0000   1.0000
     1.0000   1.0000   1.0000   1.0000   1.0000   1.0000   1.0000   1.0000
     1.0000   1.0000   1.0000   1.0000   1.0000   1.0000   1.0000   1.0000
     1.0000   1.0000   1.0000   1.0000   1.0000   1.0000   1.0000   1.0000
     1.0000   1.0000   1.0000   1.0000   1.0000   1.0000   1.0000   1.0000
     1.0000   1.0000   1.0000   1.0000   1.0000   1.0000   1.0000   1.0000
     1.0000   1.0000   1.0000   1.0000   1.0000   1.0000   1.0000   1.0000
     1.0000   1.0000   1.0000   1.0000   1.0000   1.0000   1.0000   1.0000
     1.0000   1.0000   1.0000   1.0000   1.0000   1.0000   1.0000   1.0000
     1.0000   1.0000   1.0000   1.0000   1.0000   1.0000   1.0000   1.0000
     1.0000   1.0000   1.0000   1.0000   1.0000   1.0000   1.0000   1.0000
     1.0000   1.0001   1.0001   1.0001   1.0002   1.0004   1.0005   1.0007
     1.0007   1.0011   1.0013   1.0019   1.0026   1.0037   1.0045   1.0060
     1.0084   1.0107   1.0128   1.0160   1.0190   1.0209   1.0292   1.0438
     1.0479   1.0518   1.0646   1.0685   1.0748   1.0813   1.0831   1.0785
     1.0664   0.9420   0.7769   0.1383   0.0911   0.0589   0.0237   0.0116
     0.0058   0.0037   0.0024   0.0013   0.0007   0.0004   0.0002   0.0001
     0.0001   0.0000   0.0000   0.0000   0.0000   0.0000   0.0000   0.0000
     0.0000   0.0000   0.0000   0.0000   0.0000   0.0000

          k = 0.3333 0.0000 0.0000 ( 42499 PWs)   bands (ev):

    -6.2105  -5.8690  -5.4596  -5.3292  -5.2016  -5.0732  -5.0366  -4.8636
    -4.8043  -4.7094  -4.5606  -4.4528  -4.3092  -4.2471  -4.1677  -4.0627
    -3.9674  -3.8993  -3.7753  -3.7004  -3.5777  -3.3884  -3.3401  -3.0538
    -2.9845  -2.8888  -2.8041  -2.6221  -2.5776  -2.5101  -2.3988  -2.3175
    -2.0796  -2.0527  -1.9595  -1.8614  -1.8069  -1.6599  -1.5120  -1.4082
    -1.3663  -1.1721  -1.1432  -1.0192  -0.8501  -0.7356  -0.6153  -0.5344
    -0.5016  -0.3326  -0.2152  -0.0080   0.0153   0.2249   0.2718   0.3477
     0.5509   0.6156   0.7548   0.8588   0.9621   1.0307   1.0923   1.2049
     1.3644   1.3854   1.5320   1.5662   1.6355   1.6987   1.8158   1.8544
     1.9118   1.9553   2.0256   2.0747   2.1419   2.2042   2.2662   2.3281
     2.4426   2.5049   2.5796   2.6585   2.7057   2.7429   2.7877   2.8466
     2.8913   2.9655   3.0129   3.0586   3.1218   3.1437   3.2534   3.2584
     3.2998   3.3481   3.4120   3.4639   3.5065   3.5517   3.6122   3.6904
     3.7397   3.7544   3.8640   3.8769   3.8954   3.9704   3.9981   4.0620
     4.0944   4.1354   4.1709   4.2195   4.2593   4.3041   4.3467   4.4013
     4.4934   4.5053   4.5585   4.6595   4.7007   4.7417   4.8709   4.9806
     5.0463   5.1668   5.3318   6.0897   6.1405   6.3818   6.5070   6.6006
     6.7041   6.8226   6.9144   6.9912   7.0736   7.1092   7.1765   7.2667
     7.3307   7.4327   7.4914   7.5282   7.5774   7.6475   7.6829   7.7351
     7.8217   7.8426   7.9262   7.9753   8.0387   8.0554

     occupation numbers 
     1.0000   1.0000   1.0000   1.0000   1.0000   1.0000   1.0000   1.0000
     1.0000   1.0000   1.0000   1.0000   1.0000   1.0000   1.0000   1.0000
     1.0000   1.0000   1.0000   1.0000   1.0000   1.0000   1.0000   1.0000
     1.0000   1.0000   1.0000   1.0000   1.0000   1.0000   1.0000   1.0000
     1.0000   1.0000   1.0000   1.0000   1.0000   1.0000   1.0000   1.0000
     1.0000   1.0000   1.0000   1.0000   1.0000   1.0000   1.0000   1.0000
     1.0000   1.0000   1.0000   1.0000   1.0000   1.0000   1.0000   1.0000
     1.0000   1.0000   1.0000   1.0000   1.0000   1.0000   1.0000   1.0000
     1.0000   1.0000   1.0000   1.0000   1.0000   1.0000   1.0000   1.0000
     1.0000   1.0000   1.0000   1.0000   1.0000   1.0000   1.0000   1.0000
     1.0000   1.0000   1.0000   1.0000   1.0000   1.0000   1.0000   1.0000
     1.0000   1.0000   1.0000   1.0000   1.0000   1.0000   1.0000   1.0000
     1.0000   1.0001   1.0001   1.0002   1.0003   1.0004   1.0006   1.0010
     1.0014   1.0015   1.0030   1.0033   1.0037   1.0056   1.0065   1.0091
     1.0106   1.0130   1.0152   1.0189   1.0223   1.0266   1.0311   1.0376
     1.0497   1.0513   1.0587   1.0718   1.0763   1.0798   1.0823   1.0687
     1.0514   0.9985   0.8802   0.1596   0.1318   0.0462   0.0244   0.0145
     0.0078   0.0037   0.0020   0.0011   0.0006   0.0005   0.0003   0.0001
     0.0001   0.0000   0.0000   0.0000   0.0000   0.0000   0.0000   0.0000
     0.0000   0.0000   0.0000   0.0000   0.0000   0.0000

          k = 0.0000 0.3333 0.0000 ( 42499 PWs)   bands (ev):

    -6.2065  -5.8918  -5.3873  -5.3357  -5.2279  -5.1442  -4.9698  -4.9107
    -4.8445  -4.7281  -4.5477  -4.3456  -4.2920  -4.2357  -4.1293  -4.0135
    -3.9264  -3.8792  -3.8324  -3.7268  -3.5428  -3.4622  -3.3670  -3.2404
    -2.9950  -2.8898  -2.7471  -2.6903  -2.6099  -2.5187  -2.4307  -2.2801
    -2.2005  -2.0548  -1.9280  -1.8066  -1.7099  -1.6023  -1.5116  -1.3818
    -1.3061  -1.1936  -1.1256  -0.8891  -0.7271  -0.6833  -0.6088  -0.5327
    -0.4663  -0.2719  -0.1972  -0.0784   0.0299   0.1328   0.1806   0.3203
     0.5455   0.6780   0.7160   0.8017   0.9387   1.0086   1.1128   1.1453
     1.2830   1.3339   1.4020   1.5331   1.6227   1.6555   1.7340   1.8534
     1.9146   1.9881   2.0404   2.0870   2.1347   2.2129   2.2842   2.3341
     2.3747   2.4561   2.5111   2.5866   2.6436   2.7245   2.7538   2.8414
     2.9135   2.9280   3.0051   3.0610   3.1382   3.1843   3.2461   3.3202
     3.3877   3.4034   3.4500   3.5290   3.5608   3.6186   3.6724   3.7287
     3.7660   3.7931   3.8236   3.8857   3.9082   3.9695   3.9951   4.0984
     4.1129   4.1554   4.2066   4.2771   4.2940   4.3312   4.3809   4.4153
     4.4869   4.5317   4.5962   4.6885   4.7712   4.8531   4.8943   4.9620
     5.1037   5.2201   5.3215   6.0804   6.1938   6.3863   6.4847   6.6324
     6.7275   6.8732   6.9220   6.9889   7.0583   7.1367   7.1922   7.2529
     7.3306   7.3950   7.4461   7.4944   7.5434   7.5928   7.6141   7.6740
     7.7336   7.7650   7.8076   7.8375   7.8837   7.9749

     occupation numbers 
     1.0000   1.0000   1.0000   1.0000   1.0000   1.0000   1.0000   1.0000
     1.0000   1.0000   1.0000   1.0000   1.0000   1.0000   1.0000   1.0000
     1.0000   1.0000   1.0000   1.0000   1.0000   1.0000   1.0000   1.0000
     1.0000   1.0000   1.0000   1.0000   1.0000   1.0000   1.0000   1.0000
     1.0000   1.0000   1.0000   1.0000   1.0000   1.0000   1.0000   1.0000
     1.0000   1.0000   1.0000   1.0000   1.0000   1.0000   1.0000   1.0000
     1.0000   1.0000   1.0000   1.0000   1.0000   1.0000   1.0000   1.0000
     1.0000   1.0000   1.0000   1.0000   1.0000   1.0000   1.0000   1.0000
     1.0000   1.0000   1.0000   1.0000   1.0000   1.0000   1.0000   1.0000
     1.0000   1.0000   1.0000   1.0000   1.0000   1.0000   1.0000   1.0000
     1.0000   1.0000   1.0000   1.0000   1.0000   1.0000   1.0000   1.0000
     1.0000   1.0000   1.0000   1.0000   1.0000   1.0000   1.0000   1.0001
     1.0001   1.0001   1.0002   1.0003   1.0004   1.0006   1.0009   1.0013
     1.0017   1.0020   1.0024   1.0035   1.0039   1.0056   1.0064   1.0109
     1.0116   1.0142   1.0179   1.0239   1.0256   1.0294   1.0351   1.0393
     1.0488   1.0550   1.0638   1.0750   1.0817   1.0830   1.0809   1.0723
     1.0297   0.9659   0.8890   0.1651   0.1067   0.0452   0.0275   0.0121
     0.0068   0.0026   0.0019   0.0011   0.0007   0.0004   0.0002   0.0001
     0.0001   0.0000   0.0000   0.0000   0.0000   0.0000   0.0000   0.0000
     0.0000   0.0000   0.0000   0.0000   0.0000   0.0000

          k = 0.0000-0.3333 0.3333 ( 42506 PWs)   bands (ev):

    -6.0968  -5.8809  -5.6522  -5.4809  -5.2000  -5.1215  -4.9993  -4.8248
    -4.7182  -4.6029  -4.5029  -4.4441  -4.4248  -4.2767  -4.2343  -4.0299
    -3.7746  -3.6487  -3.6089  -3.5536  -3.4557  -3.3821  -3.3021  -3.2350
    -3.0727  -3.0015  -2.8913  -2.7434  -2.7082  -2.5959  -2.5273  -2.4797
    -2.2768  -2.1715  -2.1495  -2.0458  -1.7026  -1.5345  -1.4240  -1.3884
    -1.1881  -1.0691  -1.0241  -0.9303  -0.7776  -0.6670  -0.5387  -0.4247
    -0.3377  -0.2430  -0.1309   0.0171   0.1165   0.1813   0.2331   0.4173
     0.4736   0.5698   0.7169   0.8212   0.9105   0.9968   1.0907   1.1710
     1.2402   1.3321   1.3709   1.4574   1.5436   1.6401   1.8143   1.8582
     1.9247   1.9883   2.0807   2.1578   2.1837   2.2996   2.3255   2.3983
     2.4348   2.5097   2.5445   2.5978   2.6614   2.7105   2.7926   2.8360
     2.8945   2.9224   3.0153   3.0555   3.1167   3.1427   3.2256   3.2908
     3.3219   3.3516   3.3843   3.4641   3.4972   3.5409   3.5539   3.6317
     3.7062   3.7651   3.8365   3.8683   3.9194   3.9760   3.9915   4.0338
     4.0818   4.1411   4.1712   4.2294   4.2997   4.3298   4.4285   4.4505
     4.5066   4.5573   4.6030   4.6458   4.6992   4.7782   4.9287   4.9877
     5.0148   5.2176   5.2891   6.0374   6.1879   6.3009   6.5284   6.6338
     6.7144   6.8119   6.8739   7.0289   7.0451   7.1431   7.2230   7.2412
     7.3003   7.4130   7.4691   7.5026   7.5592   7.6505   7.6880   7.7376
     7.7915   7.8430   7.8557   7.9583   7.9903   8.0458

     occupation numbers 
     1.0000   1.0000   1.0000   1.0000   1.0000   1.0000   1.0000   1.0000
     1.0000   1.0000   1.0000   1.0000   1.0000   1.0000   1.0000   1.0000
     1.0000   1.0000   1.0000   1.0000   1.0000   1.0000   1.0000   1.0000
     1.0000   1.0000   1.0000   1.0000   1.0000   1.0000   1.0000   1.0000
     1.0000   1.0000   1.0000   1.0000   1.0000   1.0000   1.0000   1.0000
     1.0000   1.0000   1.0000   1.0000   1.0000   1.0000   1.0000   1.0000
     1.0000   1.0000   1.0000   1.0000   1.0000   1.0000   1.0000   1.0000
     1.0000   1.0000   1.0000   1.0000   1.0000   1.0000   1.0000   1.0000
     1.0000   1.0000   1.0000   1.0000   1.0000   1.0000   1.0000   1.0000
     1.0000   1.0000   1.0000   1.0000   1.0000   1.0000   1.0000   1.0000
     1.0000   1.0000   1.0000   1.0000   1.0000   1.0000   1.0000   1.0000
     1.0000   1.0000   1.0000   1.0000   1.0000   1.0000   1.0000   1.0000
     1.0001   1.0001   1.0001   1.0002   1.0002   1.0003   1.0004   1.0007
     1.0011   1.0016   1.0026   1.0031   1.0042   1.0058   1.0063   1.0078
     1.0100   1.0133   1.0153   1.0197   1.0261   1.0293   1.0410   1.0439
     1.0515   1.0585   1.0647   1.0702   1.0761   1.0821   1.0774   1.0672
     1.0607   0.9676   0.9157   0.1922   0.1093   0.0674   0.0218   0.0120
     0.0074   0.0039   0.0026   0.0008   0.0007   0.0003   0.0002   0.0002
     0.0001   0.0000   0.0000   0.0000   0.0000   0.0000   0.0000   0.0000
     0.0000   0.0000   0.0000   0.0000   0.0000   0.0000

          k = 0.3333 0.0000-0.3333 ( 42506 PWs)   bands (ev):

    -6.0998  -5.8422  -5.7169  -5.4473  -5.2444  -5.0595  -4.9303  -4.8101
    -4.7847  -4.7069  -4.5319  -4.4230  -4.3536  -4.2824  -4.1760  -4.0369
    -3.8566  -3.7542  -3.6818  -3.6007  -3.4293  -3.3291  -3.2846  -3.2024
    -3.0638  -2.9098  -2.8587  -2.7598  -2.6096  -2.4779  -2.4208  -2.3379
    -2.3154  -2.2132  -2.1371  -1.8795  -1.7953  -1.6496  -1.5621  -1.5059
    -1.3958  -1.2831  -1.0485  -0.9513  -0.7955  -0.7482  -0.6296  -0.3946
    -0.2554  -0.1656  -0.0816   0.0591   0.1239   0.1946   0.2533   0.4499
     0.5393   0.6075   0.6866   0.8393   0.8719   0.9588   1.1575   1.2538
     1.2960   1.4482   1.5454   1.5608   1.6627   1.7389   1.7962   1.8224
     1.9064   1.9924   2.0868   2.1857   2.2424   2.2875   2.3259   2.3887
     2.4066   2.4654   2.5272   2.5872   2.6447   2.6689   2.7522   2.8617
     2.8939   2.9216   3.0006   3.0475   3.1074   3.1575   3.1883   3.2096
     3.2824   3.3510   3.3816   3.4317   3.4827   3.5331   3.5662   3.6088
     3.7055   3.7330   3.7610   3.8624   3.9069   3.9383   3.9673   4.0160
     4.0651   4.1345   4.1576   4.1960   4.2225   4.2628   4.3204   4.3941
     4.4407   4.5269   4.5731   4.6568   4.7080   4.7640   4.8283   4.9425
     5.0690   5.1591   5.3342   6.1230   6.2386   6.3968   6.5517   6.6366
     6.7024   6.8666   6.9269   6.9792   7.0722   7.1546   7.1927   7.3130
     7.3869   7.5008   7.5092   7.5497   7.5777   7.6227   7.7214   7.7439
     7.8274   7.8809   7.9412   7.9757   8.0118   8.0588

     occupation numbers 
     1.0000   1.0000   1.0000   1.0000   1.0000   1.0000   1.0000   1.0000
     1.0000   1.0000   1.0000   1.0000   1.0000   1.0000   1.0000   1.0000
     1.0000   1.0000   1.0000   1.0000   1.0000   1.0000   1.0000   1.0000
     1.0000   1.0000   1.0000   1.0000   1.0000   1.0000   1.0000   1.0000
     1.0000   1.0000   1.0000   1.0000   1.0000   1.0000   1.0000   1.0000
     1.0000   1.0000   1.0000   1.0000   1.0000   1.0000   1.0000   1.0000
     1.0000   1.0000   1.0000   1.0000   1.0000   1.0000   1.0000   1.0000
     1.0000   1.0000   1.0000   1.0000   1.0000   1.0000   1.0000   1.0000
     1.0000   1.0000   1.0000   1.0000   1.0000   1.0000   1.0000   1.0000
     1.0000   1.0000   1.0000   1.0000   1.0000   1.0000   1.0000   1.0000
     1.0000   1.0000   1.0000   1.0000   1.0000   1.0000   1.0000   1.0000
     1.0000   1.0000   1.0000   1.0000   1.0000   1.0000   1.0000   1.0000
     1.0000   1.0001   1.0001   1.0001   1.0002   1.0003   1.0004   1.0006
     1.0011   1.0013   1.0016   1.0030   1.0039   1.0047   1.0055   1.0071
     1.0092   1.0129   1.0144   1.0170   1.0191   1.0226   1.0283   1.0367
     1.0426   1.0543   1.0607   1.0715   1.0770   1.0813   1.0833   1.0755
     1.0436   1.0027   0.8781   0.1410   0.0886   0.0429   0.0191   0.0118
     0.0079   0.0027   0.0018   0.0012   0.0006   0.0003   0.0002   0.0001
     0.0000   0.0000   0.0000   0.0000   0.0000   0.0000   0.0000   0.0000
     0.0000   0.0000   0.0000   0.0000   0.0000   0.0000

          k =-0.3333 0.0000-0.3333 ( 42506 PWs)   bands (ev):

    -6.1071  -5.7906  -5.7510  -5.4934  -5.1723  -5.0822  -4.9596  -4.8160
    -4.7610  -4.6634  -4.5918  -4.4379  -4.3563  -4.3045  -4.0956  -4.0489
    -3.8688  -3.7623  -3.6372  -3.5573  -3.4453  -3.4055  -3.3005  -3.1357
    -3.0853  -2.9191  -2.8560  -2.7898  -2.6532  -2.5448  -2.4657  -2.3443
    -2.2673  -2.1102  -2.0071  -1.9000  -1.7936  -1.6424  -1.6328  -1.4786
    -1.3891  -1.2664  -1.0560  -0.9769  -0.8785  -0.7675  -0.6119  -0.4152
    -0.2979  -0.1040  -0.0621   0.0715   0.1378   0.1725   0.3189   0.4284
     0.5242   0.6606   0.7105   0.7407   0.9385   1.0485   1.0849   1.2166
     1.2819   1.4467   1.4971   1.5886   1.6694   1.7465   1.7586   1.8271
     1.9001   1.9883   2.0513   2.1501   2.1834   2.2641   2.2826   2.4035
     2.4463   2.4993   2.5544   2.6284   2.6951   2.7309   2.7763   2.8459
     2.9383   2.9684   2.9929   3.0373   3.1016   3.1229   3.1853   3.2424
     3.3034   3.3281   3.3655   3.4277   3.4684   3.5509   3.5938   3.6455
     3.6849   3.7301   3.7960   3.8182   3.8586   3.9408   3.9610   4.0188
     4.0633   4.0812   4.1312   4.2031   4.2109   4.2756   4.3128   4.3903
     4.4373   4.4837   4.5653   4.6116   4.7191   4.7853   4.8683   4.9428
     5.0459   5.1676   5.3286   6.1774   6.2284   6.3574   6.5786   6.6350
     6.7737   6.8680   6.8989   6.9461   7.0232   7.2227   7.2434   7.3246
     7.4367   7.4631   7.5066   7.5598   7.6424   7.6769   7.7374   7.7783
     7.8132   7.8664   7.9123   7.9478   8.0241   8.0793

     occupation numbers 
     1.0000   1.0000   1.0000   1.0000   1.0000   1.0000   1.0000   1.0000
     1.0000   1.0000   1.0000   1.0000   1.0000   1.0000   1.0000   1.0000
     1.0000   1.0000   1.0000   1.0000   1.0000   1.0000   1.0000   1.0000
     1.0000   1.0000   1.0000   1.0000   1.0000   1.0000   1.0000   1.0000
     1.0000   1.0000   1.0000   1.0000   1.0000   1.0000   1.0000   1.0000
     1.0000   1.0000   1.0000   1.0000   1.0000   1.0000   1.0000   1.0000
     1.0000   1.0000   1.0000   1.0000   1.0000   1.0000   1.0000   1.0000
     1.0000   1.0000   1.0000   1.0000   1.0000   1.0000   1.0000   1.0000
     1.0000   1.0000   1.0000   1.0000   1.0000   1.0000   1.0000   1.0000
     1.0000   1.0000   1.0000   1.0000   1.0000   1.0000   1.0000   1.0000
     1.0000   1.0000   1.0000   1.0000   1.0000   1.0000   1.0000   1.0000
     1.0000   1.0000   1.0000   1.0000   1.0000   1.0000   1.0000   1.0000
     1.0001   1.0001   1.0001   1.0001   1.0002   1.0004   1.0005   1.0007
     1.0010   1.0013   1.0020   1.0023   1.0029   1.0047   1.0053   1.0073
     1.0091   1.0100   1.0127   1.0176   1.0182   1.0238   1.0275   1.0362
     1.0422   1.0484   1.0596   1.0658   1.0780   1.0824   1.0824   1.0754
     1.0515   0.9980   0.8829   0.1140   0.0925   0.0519   0.0165   0.0119
     0.0051   0.0027   0.0022   0.0016   0.0009   0.0002   0.0002   0.0001
     0.0000   0.0000   0.0000   0.0000   0.0000   0.0000   0.0000   0.0000
     0.0000   0.0000   0.0000   0.0000   0.0000   0.0000

          k = 0.3333-0.3333 0.0000 ( 42506 PWs)   bands (ev):

    -6.1095  -5.8085  -5.7382  -5.4705  -5.1906  -5.1100  -4.9462  -4.7909
    -4.7223  -4.6635  -4.5763  -4.4860  -4.4183  -4.2124  -4.1596  -4.0453
    -3.8586  -3.7487  -3.6086  -3.5428  -3.4595  -3.3308  -3.2633  -3.2281
    -3.1639  -2.9829  -2.9229  -2.7001  -2.6510  -2.5756  -2.4933  -2.3657
    -2.1692  -2.1035  -2.0594  -1.9089  -1.7803  -1.7067  -1.5531  -1.3825
    -1.3657  -1.2204  -1.0414  -0.9687  -0.7513  -0.7335  -0.5114  -0.4465
    -0.4050  -0.2482  -0.1560  -0.0680   0.1086   0.2521   0.2840   0.4086
     0.5842   0.6283   0.7703   0.8624   0.9372   1.0349   1.1337   1.1876
     1.2844   1.3900   1.4917   1.5364   1.6462   1.7233   1.7618   1.8363
     1.9124   2.0124   2.0447   2.1348   2.1560   2.2308   2.3047   2.3316
     2.3923   2.4329   2.5118   2.5581   2.7227   2.7593   2.7975   2.8403
     2.9158   2.9487   3.0284   3.0510   3.1165   3.1721   3.2442   3.2706
     3.3519   3.3684   3.3909   3.4736   3.5012   3.5407   3.5846   3.6626
     3.6996   3.7151   3.7747   3.8344   3.8521   3.8972   3.9247   4.0045
     4.0505   4.0696   4.1169   4.1838   4.2329   4.2981   4.3709   4.4280
     4.4872   4.5436   4.6349   4.6706   4.7705   4.7857   4.8919   4.9356
     5.0486   5.2217   5.4077   6.0729   6.2750   6.3740   6.4527   6.6218
     6.6821   6.8268   6.8667   6.9819   7.0783   7.1195   7.1947   7.2649
     7.3092   7.3976   7.4458   7.4957   7.5573   7.6243   7.6958   7.7371
     7.7891   7.8561   7.9178   7.9790   8.0103   8.0495

     occupation numbers 
     1.0000   1.0000   1.0000   1.0000   1.0000   1.0000   1.0000   1.0000
     1.0000   1.0000   1.0000   1.0000   1.0000   1.0000   1.0000   1.0000
     1.0000   1.0000   1.0000   1.0000   1.0000   1.0000   1.0000   1.0000
     1.0000   1.0000   1.0000   1.0000   1.0000   1.0000   1.0000   1.0000
     1.0000   1.0000   1.0000   1.0000   1.0000   1.0000   1.0000   1.0000
     1.0000   1.0000   1.0000   1.0000   1.0000   1.0000   1.0000   1.0000
     1.0000   1.0000   1.0000   1.0000   1.0000   1.0000   1.0000   1.0000
     1.0000   1.0000   1.0000   1.0000   1.0000   1.0000   1.0000   1.0000
     1.0000   1.0000   1.0000   1.0000   1.0000   1.0000   1.0000   1.0000
     1.0000   1.0000   1.0000   1.0000   1.0000   1.0000   1.0000   1.0000
     1.0000   1.0000   1.0000   1.0000   1.0000   1.0000   1.0000   1.0000
     1.0000   1.0000   1.0000   1.0000   1.0000   1.0000   1.0000   1.0000
     1.0001   1.0001   1.0001   1.0002   1.0003   1.0003   1.0005   1.0008
     1.0011   1.0012   1.0017   1.0025   1.0028   1.0037   1.0043   1.0067
     1.0085   1.0094   1.0119   1.0162   1.0200   1.0260   1.0339   1.0410
     1.0488   1.0566   1.0688   1.0731   1.0817   1.0824   1.0810   1.0765
     1.0507   0.9649   0.8100   0.1696   0.0756   0.0480   0.0324   0.0129
     0.0090   0.0036   0.0027   0.0012   0.0006   0.0004   0.0002   0.0001
     0.0001   0.0000   0.0000   0.0000   0.0000   0.0000   0.0000   0.0000
     0.0000   0.0000   0.0000   0.0000   0.0000   0.0000

          k =-0.3333-0.3333 0.0000 ( 42506 PWs)   bands (ev):

    -6.1033  -5.8496  -5.7019  -5.4553  -5.2409  -5.0755  -4.9089  -4.8480
    -4.7498  -4.6246  -4.5633  -4.4708  -4.3644  -4.2766  -4.1883  -4.0342
    -3.8455  -3.7529  -3.6693  -3.5799  -3.4569  -3.3301  -3.2436  -3.1835
    -3.0484  -2.9840  -2.9011  -2.7459  -2.6677  -2.5736  -2.4974  -2.3497
    -2.2684  -2.1405  -2.0461  -1.8753  -1.8236  -1.6682  -1.5614  -1.4193
    -1.3349  -1.1612  -1.0962  -0.8804  -0.7181  -0.6617  -0.5651  -0.4773
    -0.4200  -0.2893  -0.1681  -0.0689   0.0864   0.2281   0.3031   0.3907
     0.5708   0.6243   0.7412   0.9024   0.9358   1.0201   1.1409   1.2873
     1.3301   1.3617   1.4035   1.5841   1.6562   1.6947   1.8005   1.8357
     1.9086   2.0026   2.1060   2.1529   2.1675   2.2354   2.3057   2.3672
     2.4353   2.4630   2.5197   2.5987   2.6345   2.6896   2.7683   2.7873
     2.8623   2.9264   2.9769   3.0374   3.1064   3.1415   3.1946   3.2407
     3.3538   3.3921   3.4252   3.4679   3.5176   3.5695   3.6220   3.6724
     3.6975   3.7472   3.7824   3.8325   3.8872   3.9094   3.9474   3.9656
     4.0279   4.0832   4.1351   4.1703   4.2559   4.3232   4.3659   4.4042
     4.4853   4.5340   4.5994   4.6840   4.7336   4.8562   4.9151   4.9456
     5.0296   5.1996   5.4289   6.0828   6.2301   6.3639   6.5278   6.6134
     6.6672   6.8481   6.9607   6.9799   7.0478   7.1186   7.2297   7.2568
     7.2849   7.3762   7.4325   7.5017   7.5363   7.6019   7.7463   7.7791
     7.8299   7.8666   7.9188   7.9509   7.9805   8.0337

     occupation numbers 
     1.0000   1.0000   1.0000   1.0000   1.0000   1.0000   1.0000   1.0000
     1.0000   1.0000   1.0000   1.0000   1.0000   1.0000   1.0000   1.0000
     1.0000   1.0000   1.0000   1.0000   1.0000   1.0000   1.0000   1.0000
     1.0000   1.0000   1.0000   1.0000   1.0000   1.0000   1.0000   1.0000
     1.0000   1.0000   1.0000   1.0000   1.0000   1.0000   1.0000   1.0000
     1.0000   1.0000   1.0000   1.0000   1.0000   1.0000   1.0000   1.0000
     1.0000   1.0000   1.0000   1.0000   1.0000   1.0000   1.0000   1.0000
     1.0000   1.0000   1.0000   1.0000   1.0000   1.0000   1.0000   1.0000
     1.0000   1.0000   1.0000   1.0000   1.0000   1.0000   1.0000   1.0000
     1.0000   1.0000   1.0000   1.0000   1.0000   1.0000   1.0000   1.0000
     1.0000   1.0000   1.0000   1.0000   1.0000   1.0000   1.0000   1.0000
     1.0000   1.0000   1.0000   1.0000   1.0000   1.0000   1.0000   1.0000
     1.0001   1.0001   1.0001   1.0002   1.0003   1.0004   1.0006   1.0009
     1.0010   1.0015   1.0018   1.0025   1.0035   1.0040   1.0049   1.0054
     1.0076   1.0101   1.0129   1.0152   1.0220   1.0286   1.0333   1.0379
     1.0486   1.0553   1.0642   1.0745   1.0792   1.0829   1.0789   1.0750
     1.0565   0.9792   0.7890   0.1636   0.0918   0.0503   0.0218   0.0135
     0.0098   0.0031   0.0014   0.0012   0.0007   0.0004   0.0002   0.0001
     0.0001   0.0000   0.0000   0.0000   0.0000   0.0000   0.0000   0.0000
     0.0000   0.0000   0.0000   0.0000   0.0000   0.0000

          k =-0.3333-0.3333 0.3333 ( 42463 PWs)   bands (ev):

    -5.9904  -5.8181  -5.6837  -5.5141  -5.4336  -5.2797  -5.1772  -4.9849
    -4.5400  -4.4125  -4.3115  -4.2817  -4.2167  -4.1423  -4.0750  -3.9886
    -3.8970  -3.8136  -3.7092  -3.5676  -3.4778  -3.3399  -3.2994  -3.1696
    -3.0902  -3.0601  -2.9603  -2.8287  -2.7987  -2.7127  -2.5724  -2.4430
    -2.3391  -2.2045  -2.0499  -1.9552  -1.7764  -1.6463  -1.4385  -1.3211
    -1.2623  -1.1557  -1.0742  -0.9581  -0.8129  -0.6484  -0.5846  -0.4129
    -0.3128  -0.1878  -0.0186   0.0769   0.1492   0.2432   0.3059   0.3861
     0.4743   0.5833   0.7451   0.7986   0.9182   1.0244   1.1043   1.1847
     1.3182   1.3978   1.4525   1.5376   1.6161   1.7375   1.7951   1.8660
     1.9676   2.0430   2.0985   2.1525   2.2523   2.3222   2.3837   2.4205
     2.4418   2.5572   2.6095   2.6696   2.6847   2.7380   2.7756   2.8252
     2.9211   2.9412   2.9721   3.0250   3.0695   3.1081   3.1560   3.1971
     3.2469   3.3247   3.3506   3.3832   3.4561   3.5091   3.5579   3.5950
     3.6460   3.6819   3.7596   3.8175   3.8487   3.8773   3.9253   3.9755
     4.0139   4.0885   4.1233   4.1694   4.2549   4.2981   4.3751   4.4172
     4.4802   4.5192   4.5690   4.6418   4.6678   4.7239   4.8346   4.9148
     5.0412   5.2477   5.4082   6.1205   6.2387   6.3356   6.4395   6.6421
     6.6982   6.7805   6.8986   6.9848   7.0315   7.1307   7.1892   7.2938
     7.3620   7.4058   7.4834   7.5791   7.6188   7.6574   7.6800   7.7302
     7.7736   7.8450   7.8979   7.9734   8.0130   8.0480

     occupation numbers 
     1.0000   1.0000   1.0000   1.0000   1.0000   1.0000   1.0000   1.0000
     1.0000   1.0000   1.0000   1.0000   1.0000   1.0000   1.0000   1.0000
     1.0000   1.0000   1.0000   1.0000   1.0000   1.0000   1.0000   1.0000
     1.0000   1.0000   1.0000   1.0000   1.0000   1.0000   1.0000   1.0000
     1.0000   1.0000   1.0000   1.0000   1.0000   1.0000   1.0000   1.0000
     1.0000   1.0000   1.0000   1.0000   1.0000   1.0000   1.0000   1.0000
     1.0000   1.0000   1.0000   1.0000   1.0000   1.0000   1.0000   1.0000
     1.0000   1.0000   1.0000   1.0000   1.0000   1.0000   1.0000   1.0000
     1.0000   1.0000   1.0000   1.0000   1.0000   1.0000   1.0000   1.0000
     1.0000   1.0000   1.0000   1.0000   1.0000   1.0000   1.0000   1.0000
     1.0000   1.0000   1.0000   1.0000   1.0000   1.0000   1.0000   1.0000
     1.0000   1.0000   1.0000   1.0000   1.0000   1.0000   1.0000   1.0000
     1.0000   1.0001   1.0001   1.0001   1.0002   1.0003   1.0004   1.0005
     1.0007   1.0009   1.0016   1.0023   1.0028   1.0033   1.0043   1.0057
     1.0071   1.0103   1.0122   1.0151   1.0219   1.0260   1.0344   1.0396
     1.0479   1.0532   1.0601   1.0697   1.0727   1.0784   1.0833   1.0790
     1.0530   0.9469   0.8095   0.1423   0.0885   0.0575   0.0347   0.0114
     0.0081   0.0048   0.0022   0.0012   0.0008   0.0004   0.0002   0.0001
     0.0001   0.0000   0.0000   0.0000   0.0000   0.0000   0.0000   0.0000
     0.0000   0.0000   0.0000   0.0000   0.0000   0.0000

          k =-0.3333 0.3333-0.3333 ( 42463 PWs)   bands (ev):

    -6.0073  -5.7905  -5.6552  -5.5417  -5.4097  -5.3433  -5.1782  -4.9762
    -4.4999  -4.4074  -4.3569  -4.2911  -4.1948  -4.1080  -4.0558  -3.9560
    -3.9349  -3.8046  -3.6918  -3.5880  -3.4915  -3.3888  -3.3348  -3.1922
    -3.0998  -3.0195  -2.9737  -2.8583  -2.7764  -2.6310  -2.5631  -2.4946
    -2.3116  -2.1779  -2.1168  -1.8923  -1.7186  -1.5977  -1.5438  -1.3874
    -1.3281  -1.0933  -1.0327  -0.9386  -0.8060  -0.6783  -0.5446  -0.4444
    -0.2921  -0.1871  -0.0293   0.0316   0.1602   0.2164   0.2863   0.4325
     0.4859   0.5734   0.7640   0.8924   0.9748   1.0052   1.1107   1.1388
     1.2726   1.3159   1.4045   1.5570   1.6399   1.7077   1.7882   1.8935
     1.9335   1.9818   2.1008   2.1898   2.2380   2.3236   2.3625   2.4164
     2.4493   2.5387   2.5849   2.6786   2.7142   2.7860   2.8243   2.8904
     2.9182   2.9529   2.9928   3.0359   3.1192   3.1415   3.1796   3.2102
     3.2917   3.3288   3.3935   3.4309   3.4563   3.4832   3.5456   3.5831
     3.6210   3.6747   3.7132   3.7744   3.8074   3.8897   3.9199   3.9419
     4.0055   4.0437   4.1358   4.1822   4.2061   4.2631   4.3209   4.3735
     4.4557   4.5497   4.5881   4.6419   4.6788   4.7306   4.8662   4.9639
     4.9740   5.2230   5.4384   6.0975   6.2723   6.3583   6.5094   6.6338
     6.7615   6.8191   6.9308   6.9482   7.0238   7.0783   7.2182   7.2487
     7.3275   7.3854   7.4572   7.5264   7.5771   7.6576   7.6786   7.7251
     7.8230   7.8940   7.9125   7.9603   8.0168   8.0540

     occupation numbers 
     1.0000   1.0000   1.0000   1.0000   1.0000   1.0000   1.0000   1.0000
     1.0000   1.0000   1.0000   1.0000   1.0000   1.0000   1.0000   1.0000
     1.0000   1.0000   1.0000   1.0000   1.0000   1.0000   1.0000   1.0000
     1.0000   1.0000   1.0000   1.0000   1.0000   1.0000   1.0000   1.0000
     1.0000   1.0000   1.0000   1.0000   1.0000   1.0000   1.0000   1.0000
     1.0000   1.0000   1.0000   1.0000   1.0000   1.0000   1.0000   1.0000
     1.0000   1.0000   1.0000   1.0000   1.0000   1.0000   1.0000   1.0000
     1.0000   1.0000   1.0000   1.0000   1.0000   1.0000   1.0000   1.0000
     1.0000   1.0000   1.0000   1.0000   1.0000   1.0000   1.0000   1.0000
     1.0000   1.0000   1.0000   1.0000   1.0000   1.0000   1.0000   1.0000
     1.0000   1.0000   1.0000   1.0000   1.0000   1.0000   1.0000   1.0000
     1.0000   1.0000   1.0000   1.0000   1.0000   1.0000   1.0000   1.0000
     1.0000   1.0001   1.0001   1.0001   1.0002   1.0002   1.0004   1.0005
     1.0006   1.0009   1.0012   1.0017   1.0021   1.0035   1.0042   1.0048
     1.0068   1.0083   1.0130   1.0160   1.0178   1.0226   1.0283   1.0342
     1.0446   1.0575   1.0627   1.0697   1.0740   1.0790   1.0825   1.0720
     1.0701   0.9640   0.7794   0.1551   0.0765   0.0517   0.0241   0.0120
     0.0055   0.0038   0.0017   0.0015   0.0009   0.0006   0.0002   0.0001
     0.0001   0.0000   0.0000   0.0000   0.0000   0.0000   0.0000   0.0000
     0.0000   0.0000   0.0000   0.0000   0.0000   0.0000

          k = 0.3333-0.3333-0.3333 ( 42463 PWs)   bands (ev):

    -6.0068  -5.7531  -5.7018  -5.5837  -5.3828  -5.2913  -5.1720  -5.0051
    -4.5267  -4.4179  -4.3530  -4.2705  -4.1858  -4.1328  -4.0404  -4.0056
    -3.8838  -3.7505  -3.6966  -3.6287  -3.4944  -3.3768  -3.2523  -3.2162
    -3.1670  -3.0431  -2.9747  -2.9216  -2.7315  -2.6445  -2.5593  -2.4859
    -2.2734  -2.1339  -2.0332  -1.8970  -1.8217  -1.7102  -1.5082  -1.4219
    -1.2592  -1.0975  -0.9445  -0.9086  -0.7769  -0.6629  -0.5320  -0.4969
    -0.3063  -0.2240  -0.2060  -0.0246   0.1538   0.2160   0.3176   0.4018
     0.5612   0.6714   0.7144   0.8866   0.9839   1.0249   1.1651   1.2130
     1.2903   1.3920   1.4217   1.5342   1.6001   1.6815   1.8425   1.8756
     1.9273   2.0305   2.1038   2.1891   2.2327   2.2985   2.3385   2.4187
     2.4976   2.5504   2.5891   2.6249   2.6978   2.7473   2.7888   2.7981
     2.8760   2.9356   2.9694   3.0037   3.0261   3.1062   3.1535   3.2456
     3.2720   3.3337   3.3827   3.4246   3.4500   3.5093   3.5626   3.5938
     3.6466   3.6763   3.7482   3.7946   3.8044   3.8721   3.9408   3.9490
     4.0337   4.0777   4.1513   4.1807   4.2684   4.2987   4.3315   4.4471
     4.4838   4.5040   4.6179   4.6592   4.7062   4.7703   4.8128   4.9253
     5.0185   5.2282   5.4154   6.0787   6.2424   6.3015   6.5438   6.6063
     6.6787   6.7775   6.8589   6.9312   7.0338   7.1382   7.2046   7.2414
     7.3640   7.4376   7.4515   7.5394   7.6127   7.6484   7.7045   7.7435
     7.8019   7.8413   7.9100   7.9386   7.9918   8.0613

     occupation numbers 
     1.0000   1.0000   1.0000   1.0000   1.0000   1.0000   1.0000   1.0000
     1.0000   1.0000   1.0000   1.0000   1.0000   1.0000   1.0000   1.0000
     1.0000   1.0000   1.0000   1.0000   1.0000   1.0000   1.0000   1.0000
     1.0000   1.0000   1.0000   1.0000   1.0000   1.0000   1.0000   1.0000
     1.0000   1.0000   1.0000   1.0000   1.0000   1.0000   1.0000   1.0000
     1.0000   1.0000   1.0000   1.0000   1.0000   1.0000   1.0000   1.0000
     1.0000   1.0000   1.0000   1.0000   1.0000   1.0000   1.0000   1.0000
     1.0000   1.0000   1.0000   1.0000   1.0000   1.0000   1.0000   1.0000
     1.0000   1.0000   1.0000   1.0000   1.0000   1.0000   1.0000   1.0000
     1.0000   1.0000   1.0000   1.0000   1.0000   1.0000   1.0000   1.0000
     1.0000   1.0000   1.0000   1.0000   1.0000   1.0000   1.0000   1.0000
     1.0000   1.0000   1.0000   1.0000   1.0000   1.0000   1.0000   1.0000
     1.0000   1.0001   1.0001   1.0001   1.0002   1.0003   1.0004   1.0005
     1.0007   1.0009   1.0015   1.0020   1.0021   1.0032   1.0047   1.0050
     1.0078   1.0098   1.0139   1.0159   1.0231   1.0260   1.0295   1.0435
     1.0484   1.0511   1.0666   1.0717   1.0768   1.0817   1.0832   1.0778
     1.0597   0.9605   0.8024   0.1661   0.0871   0.0672   0.0200   0.0141
     0.0092   0.0049   0.0029   0.0017   0.0008   0.0004   0.0002   0.0002
     0.0001   0.0000   0.0000   0.0000   0.0000   0.0000   0.0000   0.0000
     0.0000   0.0000   0.0000   0.0000   0.0000   0.0000

     the Fermi energy is     5.7907 ev

!    total energy              =    -512.34807691 Ry
     Harris-Foulkes estimate   =    -512.34807691 Ry
     estimated scf accuracy    <          4.3E-09 Ry

     The total energy is the sum of the following terms:

     one-electron contribution =     121.78240119 Ry
     hartree contribution      =      48.77280208 Ry
     xc contribution           =    -159.23324917 Ry
     ewald contribution        =    -523.82290419 Ry
     smearing contrib. (-TS)   =       0.15287318 Ry

     convergence has been achieved in  16 iterations

     Forces acting on atoms (cartesian axes, Ry/au):

     atom    1 type  1   force =    -0.00119740   -0.00145979   -0.00116166
     atom    2 type  1   force =     0.00521754   -0.00238783    0.00018461
     atom    3 type  1   force =    -0.00139397   -0.00876495    0.00302711
     atom    4 type  1   force =     0.00338245   -0.01101970   -0.00047332
     atom    5 type  1   force =    -0.00625133    0.00409265   -0.00684771
     atom    6 type  1   force =     0.00513126    0.00516131   -0.00230806
     atom    7 type  1   force =     0.00279071   -0.00851221    0.00247693
     atom    8 type  1   force =     0.00273327   -0.00156775    0.00062163
     atom    9 type  1   force =     0.01764017    0.00137391    0.01070799
     atom   10 type  1   force =    -0.01821218    0.00703157    0.00343538
     atom   11 type  1   force =     0.00104853    0.01063357   -0.01055175
     atom   12 type  1   force =     0.01037316    0.00982480   -0.00064347
     atom   13 type  1   force =    -0.00987327   -0.00411616    0.01342684
     atom   14 type  1   force =     0.00165359   -0.00416766   -0.00158173
     atom   15 type  1   force =    -0.00636590    0.00090452   -0.00266421
     atom   16 type  1   force =    -0.00115482   -0.00091001   -0.00527989
     atom   17 type  1   force =     0.00416698    0.00198006   -0.01168188
     atom   18 type  1   force =    -0.01246646   -0.02783102    0.01308770
     atom   19 type  1   force =    -0.00783589   -0.00634191   -0.01590210
     atom   20 type  1   force =    -0.00344160    0.01563054    0.00057883
     atom   21 type  1   force =    -0.00135917    0.00172966   -0.00237191
     atom   22 type  1   force =     0.00080818   -0.00012508    0.00199731
     atom   23 type  1   force =    -0.00734402   -0.00084903    0.00283554
     atom   24 type  1   force =     0.00285184    0.00195559    0.00740000
     atom   25 type  1   force =    -0.00216379   -0.00269685   -0.00324198
     atom   26 type  1   force =     0.00589121   -0.01088476    0.00537954
     atom   27 type  1   force =    -0.00238534   -0.00664553   -0.00203392
     atom   28 type  1   force =     0.00336308   -0.00417880   -0.00117059
     atom   29 type  1   force =     0.00314042   -0.02100375    0.00475757
     atom   30 type  1   force =    -0.00314971   -0.00612255   -0.00137270
     atom   31 type  1   force =    -0.00273853    0.00815126   -0.00260629
     atom   32 type  1   force =    -0.01209489   -0.03367660    0.00218765
     atom   33 type  1   force =    -0.00351283    0.00349644   -0.00386219
     atom   34 type  1   force =    -0.00737719   -0.00368202    0.00232517
     atom   35 type  1   force =     0.00781670   -0.00199648    0.00192602
     atom   36 type  1   force =    -0.00416429   -0.00340986   -0.01037620
     atom   37 type  1   force =     0.00284846    0.01290412    0.01762311
     atom   38 type  1   force =     0.00641490    0.00792545    0.01337567
     atom   39 type  1   force =    -0.00390985    0.00850142   -0.00423863
     atom   40 type  1   force =     0.01163986   -0.00234627    0.00625971
     atom   41 type  1   force =     0.00055194    0.00701265    0.00475584
     atom   42 type  1   force =    -0.00898358   -0.00197884    0.00093872
     atom   43 type  1   force =     0.00008296   -0.00170587    0.00074124
     atom   44 type  1   force =     0.00370008    0.00559698    0.01566047
     atom   45 type  1   force =    -0.00660566    0.00652711    0.00237493
     atom   46 type  1   force =    -0.00079016    0.00581264    0.02870326
     atom   47 type  1   force =    -0.00312074    0.00002147    0.00496434
     atom   48 type  1   force =    -0.00396352   -0.00370391    0.00407012
     atom   49 type  1   force =     0.00522497    0.00556577   -0.00350013
     atom   50 type  1   force =     0.00739601   -0.00227748   -0.00234599
     atom   51 type  1   force =    -0.00091342   -0.00164269   -0.00468514
     atom   52 type  1   force =     0.00221821    0.00195354    0.00555878
     atom   53 type  1   force =    -0.00041466    0.00404226   -0.00948281
     atom   54 type  1   force =    -0.00077500    0.00593438   -0.00571800
     atom   55 type  1   force =    -0.00422633    0.00198716    0.00198375
     atom   56 type  1   force =     0.00588479    0.00641005   -0.00051974
     atom   57 type  1   force =     0.00736664   -0.00968187    0.00827547
     atom   58 type  1   force =    -0.00187401   -0.00034535    0.00004160
     atom   59 type  1   force =    -0.01073598   -0.01056081   -0.00012934
     atom   60 type  1   force =     0.00495164    0.00739521   -0.00685528
     atom   61 type  1   force =     0.01877352   -0.01033097    0.00193792
     atom   62 type  1   force =    -0.00370447    0.00082949    0.00035732
     atom   63 type  1   force =     0.01768601   -0.00352929   -0.00361424
     atom   64 type  1   force =    -0.01780539    0.02484232    0.02314702
     atom   65 type  2   force =     0.00013778    0.02195789   -0.00571152
     atom   66 type  2   force =    -0.00059429   -0.00879709   -0.00532498
     atom   67 type  2   force =    -0.00229706    0.01627678    0.02008427
     atom   68 type  2   force =     0.00765154   -0.01610426   -0.00059579
     atom   69 type  2   force =    -0.00206484   -0.00106049   -0.00647415
     atom   70 type  2   force =     0.00840012    0.01579198   -0.01800915
     atom   71 type  2   force =     0.01160254   -0.00125900   -0.01617601
     atom   72 type  2   force =    -0.01327952    0.00841993   -0.05769690
     The non-local contrib.  to forces
     atom    1 type  1   force =    -0.03111043    0.00843508   -0.00133757
     atom    2 type  1   force =     0.01367011   -0.00634257   -0.02402157
     atom    3 type  1   force =    -0.01855416   -0.07880327    0.04389119
     atom    4 type  1   force =     0.03796924    0.07435313    0.00321529
     atom    5 type  1   force =     0.02333199    0.05399187    0.04927292
     atom    6 type  1   force =    -0.06159098    0.05294897    0.01906014
     atom    7 type  1   force =     0.01985331    0.05408147    0.01952407
     atom    8 type  1   force =     0.01367262   -0.03063808   -0.05032938
     atom    9 type  1   force =    -0.06072943    0.03373546   -0.06690101
     atom   10 type  1   force =    -0.05097272    0.07090651   -0.03586092
     atom   11 type  1   force =     0.01178208   -0.05429223   -0.00609168
     atom   12 type  1   force =     0.05513670   -0.00773782    0.03423020
     atom   13 type  1   force =    -0.07382353    0.03165403    0.03127477
     atom   14 type  1   force =     0.01767571    0.05196005    0.05990618
     atom   15 type  1   force =    -0.00920428    0.01770540    0.02751601
     atom   16 type  1   force =    -0.01339104    0.03657291    0.02166661
     atom   17 type  1   force =     0.02359195    0.02091582   -0.00964368
     atom   18 type  1   force =     0.09244966    0.03307361   -0.08368750
     atom   19 type  1   force =    -0.09533163    0.03487146    0.04421212
     atom   20 type  1   force =     0.02137178    0.03199896    0.02038824
     atom   21 type  1   force =    -0.07449573   -0.02710595   -0.04168453
     atom   22 type  1   force =    -0.06334782   -0.03168811    0.03576686
     atom   23 type  1   force =     0.08367213    0.04182719    0.04236399
     atom   24 type  1   force =     0.03559549   -0.05634581    0.00505507
     atom   25 type  1   force =     0.03641489    0.07155343   -0.02586054
     atom   26 type  1   force =     0.01886965   -0.02180815   -0.05324402
     atom   27 type  1   force =    -0.01909146    0.05533331   -0.05873314
     atom   28 type  1   force =    -0.03235310   -0.06685474    0.08072485
     atom   29 type  1   force =    -0.09963387    0.10953537   -0.02912296
     atom   30 type  1   force =     0.08345185   -0.06193049   -0.01990709
     atom   31 type  1   force =     0.01291163   -0.12006417    0.05149826
     atom   32 type  1   force =     0.05582235    0.06201988   -0.04697707
     atom   33 type  1   force =     0.04028633   -0.03302649    0.00150202
     atom   34 type  1   force =     0.03516952    0.08023003    0.00450273
     atom   35 type  1   force =    -0.01120475   -0.04410867   -0.03542704
     atom   36 type  1   force =    -0.06221917    0.04065867   -0.01612435
     atom   37 type  1   force =     0.07943967   -0.11805426   -0.02762456
     atom   38 type  1   force =    -0.07672704   -0.13559425   -0.01078599
     atom   39 type  1   force =    -0.00855954   -0.06279542   -0.02248966
     atom   40 type  1   force =    -0.03907197    0.01336792   -0.01080981
     atom   41 type  1   force =    -0.06535484   -0.01272006   -0.02238416
     atom   42 type  1   force =     0.01188622   -0.03711393   -0.02014113
     atom   43 type  1   force =    -0.00710743    0.01440197    0.05175222
     atom   44 type  1   force =     0.02262728    0.09270998   -0.03696978
     atom   45 type  1   force =     0.02790745   -0.05486236    0.02850977
     atom   46 type  1   force =    -0.04988381    0.00456860    0.08572472
     atom   47 type  1   force =    -0.00767993    0.02551200   -0.05046736
     atom   48 type  1   force =     0.00399096    0.03617962   -0.00097900
     atom   49 type  1   force =    -0.00843939    0.00555391   -0.04463463
     atom   50 type  1   force =     0.06023551   -0.03225015   -0.00687310
     atom   51 type  1   force =    -0.02819934   -0.06257625    0.02091809
     atom   52 type  1   force =     0.06768976    0.01760322    0.00923665
     atom   53 type  1   force =     0.03285874   -0.07361116    0.00578241
     atom   54 type  1   force =     0.04039211   -0.05373624    0.02371840
     atom   55 type  1   force =     0.01951861   -0.01543152   -0.01606676
     atom   56 type  1   force =     0.02055582    0.03281751   -0.06885923
     atom   57 type  1   force =     0.03757574   -0.01488684    0.03097921
     atom   58 type  1   force =    -0.01026570    0.04714789   -0.02075985
     atom   59 type  1   force =    -0.02091066   -0.05296684   -0.01742892
     atom   60 type  1   force =    -0.03825946    0.05067949   -0.02129959
     atom   61 type  1   force =    -0.03719985    0.00223099    0.00993260
     atom   62 type  1   force =    -0.03485779   -0.02258492   -0.03594377
     atom   63 type  1   force =    -0.00588770   -0.02702011    0.05252117
     atom   64 type  1   force =    -0.08113315    0.12723328   -0.04866101
     atom   65 type  2   force =     0.00000000    0.00000000    0.00000000
     atom   66 type  2   force =     0.00000000    0.00000000    0.00000000
     atom   67 type  2   force =     0.00000000    0.00000000    0.00000000
     atom   68 type  2   force =     0.00000000    0.00000000    0.00000000
     atom   69 type  2   force =     0.00000000    0.00000000    0.00000000
     atom   70 type  2   force =     0.00000000    0.00000000    0.00000000
     atom   71 type  2   force =     0.00000000    0.00000000    0.00000000
     atom   72 type  2   force =     0.00000000    0.00000000    0.00000000
     The ionic contribution  to forces
     atom    1 type  1   force =    -0.26201815    0.09901260    0.00651134
     atom    2 type  1   force =     0.02431480   -0.00986412   -0.00688529
     atom    3 type  1   force =    -0.21850761   -0.70877302    0.30499757
     atom    4 type  1   force =     0.10199492    0.35387053    0.59073886
     atom    5 type  1   force =    -0.15397476    0.71223678    0.60151710
     atom    6 type  1   force =    -0.70782926   -0.12443413   -0.06214094
     atom    7 type  1   force =    -0.40262946    0.52203955    0.08758725
     atom    8 type  1   force =    -0.30087733   -0.29941901   -0.82171262
     atom    9 type  1   force =    -0.32412077    0.90278157   -0.48571543
[...]
     atom   25 type  1   force =     0.00000000    0.00000000    0.00000000
     atom   26 type  1   force =     0.00000000    0.00000000    0.00000000
     atom   27 type  1   force =     0.00000000    0.00000000    0.00000000
     atom   28 type  1   force =     0.00000000    0.00000000    0.00000000
     atom   29 type  1   force =     0.00000000    0.00000000    0.00000000
     atom   30 type  1   force =     0.00000000    0.00000000    0.00000000
     atom   31 type  1   force =     0.00000000    0.00000000    0.00000000
     atom   32 type  1   force =     0.00000000    0.00000000    0.00000000
     atom   33 type  1   force =     0.00000000    0.00000000    0.00000000
     atom   34 type  1   force =     0.00000000    0.00000000    0.00000000
     atom   35 type  1   force =     0.00000000    0.00000000    0.00000000
     atom   36 type  1   force =     0.00000000    0.00000000    0.00000000
     atom   37 type  1   force =     0.00000000    0.00000000    0.00000000
     atom   38 type  1   force =     0.00000000    0.00000000    0.00000000
     atom   39 type  1   force =     0.00000000    0.00000000    0.00000000
     atom   40 type  1   force =     0.00000000    0.00000000    0.00000000
     atom   41 type  1   force =     0.00000000    0.00000000    0.00000000
     atom   42 type  1   force =     0.00000000    0.00000000    0.00000000
     atom   43 type  1   force =     0.00000000    0.00000000    0.00000000
     atom   44 type  1   force =     0.00000000    0.00000000    0.00000000
     atom   45 type  1   force =     0.00000000    0.00000000    0.00000000
     atom   46 type  1   force =     0.00000000    0.00000000    0.00000000
     atom   47 type  1   force =     0.00000000    0.00000000    0.00000000
     atom   48 type  1   force =     0.00000000    0.00000000    0.00000000
     atom   49 type  1   force =     0.00000000    0.00000000    0.00000000
     atom   50 type  1   force =     0.00000000    0.00000000    0.00000000
     atom   51 type  1   force =     0.00000000    0.00000000    0.00000000
     atom   52 type  1   force =     0.00000000    0.00000000    0.00000000
     atom   53 type  1   force =     0.00000000    0.00000000    0.00000000
     atom   54 type  1   force =     0.00000000    0.00000000    0.00000000
     atom   55 type  1   force =     0.00000000    0.00000000    0.00000000
     atom   56 type  1   force =     0.00000000    0.00000000    0.00000000
     atom   57 type  1   force =     0.00000000    0.00000000    0.00000000
     atom   58 type  1   force =     0.00000000    0.00000000    0.00000000
     atom   59 type  1   force =     0.00000000    0.00000000    0.00000000
     atom   60 type  1   force =     0.00000000    0.00000000    0.00000000
     atom   61 type  1   force =     0.00000000    0.00000000    0.00000000
     atom   62 type  1   force =     0.00000000    0.00000000    0.00000000
     atom   63 type  1   force =     0.00000000    0.00000000    0.00000000
     atom   64 type  1   force =     0.00000000    0.00000000    0.00000000
     atom   65 type  2   force =     0.00000000    0.00000000    0.00000000
     atom   66 type  2   force =     0.00000000    0.00000000    0.00000000
     atom   67 type  2   force =     0.00000000    0.00000000    0.00000000
     atom   68 type  2   force =     0.00000000    0.00000000    0.00000000
     atom   69 type  2   force =     0.00000000    0.00000000    0.00000000
     atom   70 type  2   force =     0.00000000    0.00000000    0.00000000
     atom   71 type  2   force =     0.00000000    0.00000000    0.00000000
     atom   72 type  2   force =     0.00000000    0.00000000    0.00000000
     The Hubbard contrib.    to forces
     atom    1 type  1   force =     0.00000000    0.00000000    0.00000000
     atom    2 type  1   force =     0.00000000    0.00000000    0.00000000
     atom    3 type  1   force =     0.00000000    0.00000000    0.00000000
     atom    4 type  1   force =     0.00000000    0.00000000    0.00000000
     atom    5 type  1   force =     0.00000000    0.00000000    0.00000000
     atom    6 type  1   force =     0.00000000    0.00000000    0.00000000
     atom    7 type  1   force =     0.00000000    0.00000000    0.00000000
     atom    8 type  1   force =     0.00000000    0.00000000    0.00000000
     atom    9 type  1   force =     0.00000000    0.00000000    0.00000000
     atom   10 type  1   force =     0.00000000    0.00000000    0.00000000
     atom   11 type  1   force =     0.00000000    0.00000000    0.00000000
     atom   12 type  1   force =     0.00000000    0.00000000    0.00000000
     atom   13 type  1   force =     0.00000000    0.00000000    0.00000000
     atom   14 type  1   force =     0.00000000    0.00000000    0.00000000
     atom   15 type  1   force =     0.00000000    0.00000000    0.00000000
     atom   16 type  1   force =     0.00000000    0.00000000    0.00000000
     atom   17 type  1   force =     0.00000000    0.00000000    0.00000000
     atom   18 type  1   force =     0.00000000    0.00000000    0.00000000
     atom   19 type  1   force =     0.00000000    0.00000000    0.00000000
     atom   20 type  1   force =     0.00000000    0.00000000    0.00000000
     atom   21 type  1   force =     0.00000000    0.00000000    0.00000000
     atom   22 type  1   force =     0.00000000    0.00000000    0.00000000
     atom   23 type  1   force =     0.00000000    0.00000000    0.00000000
     atom   24 type  1   force =     0.00000000    0.00000000    0.00000000
     atom   25 type  1   force =     0.00000000    0.00000000    0.00000000
     atom   26 type  1   force =     0.00000000    0.00000000    0.00000000
     atom   27 type  1   force =     0.00000000    0.00000000    0.00000000
     atom   28 type  1   force =     0.00000000    0.00000000    0.00000000
     atom   29 type  1   force =     0.00000000    0.00000000    0.00000000
     atom   30 type  1   force =     0.00000000    0.00000000    0.00000000
     atom   31 type  1   force =     0.00000000    0.00000000    0.00000000
     atom   32 type  1   force =     0.00000000    0.00000000    0.00000000
     atom   33 type  1   force =     0.00000000    0.00000000    0.00000000
     atom   34 type  1   force =     0.00000000    0.00000000    0.00000000
     atom   35 type  1   force =     0.00000000    0.00000000    0.00000000
     atom   36 type  1   force =     0.00000000    0.00000000    0.00000000
     atom   37 type  1   force =     0.00000000    0.00000000    0.00000000
     atom   38 type  1   force =     0.00000000    0.00000000    0.00000000
     atom   39 type  1   force =     0.00000000    0.00000000    0.00000000
     atom   40 type  1   force =     0.00000000    0.00000000    0.00000000
     atom   41 type  1   force =     0.00000000    0.00000000    0.00000000
     atom   42 type  1   force =     0.00000000    0.00000000    0.00000000
     atom   43 type  1   force =     0.00000000    0.00000000    0.00000000
     atom   44 type  1   force =     0.00000000    0.00000000    0.00000000
     atom   45 type  1   force =     0.00000000    0.00000000    0.00000000
     atom   46 type  1   force =     0.00000000    0.00000000    0.00000000
     atom   47 type  1   force =     0.00000000    0.00000000    0.00000000
     atom   48 type  1   force =     0.00000000    0.00000000    0.00000000
     atom   49 type  1   force =     0.00000000    0.00000000    0.00000000
     atom   50 type  1   force =     0.00000000    0.00000000    0.00000000
     atom   51 type  1   force =     0.00000000    0.00000000    0.00000000
     atom   52 type  1   force =     0.00000000    0.00000000    0.00000000
     atom   53 type  1   force =     0.00000000    0.00000000    0.00000000
     atom   54 type  1   force =     0.00000000    0.00000000    0.00000000
     atom   55 type  1   force =     0.00000000    0.00000000    0.00000000
     atom   56 type  1   force =     0.00000000    0.00000000    0.00000000
     atom   57 type  1   force =     0.00000000    0.00000000    0.00000000
     atom   58 type  1   force =     0.00000000    0.00000000    0.00000000
     atom   59 type  1   force =     0.00000000    0.00000000    0.00000000
     atom   60 type  1   force =     0.00000000    0.00000000    0.00000000
     atom   61 type  1   force =     0.00000000    0.00000000    0.00000000
     atom   62 type  1   force =     0.00000000    0.00000000    0.00000000
     atom   63 type  1   force =     0.00000000    0.00000000    0.00000000
     atom   64 type  1   force =     0.00000000    0.00000000    0.00000000
     atom   65 type  2   force =     0.00000000    0.00000000    0.00000000
     atom   66 type  2   force =     0.00000000    0.00000000    0.00000000
     atom   67 type  2   force =     0.00000000    0.00000000    0.00000000
     atom   68 type  2   force =     0.00000000    0.00000000    0.00000000
     atom   69 type  2   force =     0.00000000    0.00000000    0.00000000
     atom   70 type  2   force =     0.00000000    0.00000000    0.00000000
     atom   71 type  2   force =     0.00000000    0.00000000    0.00000000
     atom   72 type  2   force =     0.00000000    0.00000000    0.00000000
     The SCF correction term to forces
     atom    1 type  1   force =    -0.00000795   -0.00000112   -0.00000139
     atom    2 type  1   force =    -0.00000698    0.00001084    0.00000433
     atom    3 type  1   force =    -0.00001109    0.00000758   -0.00000358
     atom    4 type  1   force =     0.00001036    0.00001222   -0.00000227
     atom    5 type  1   force =    -0.00000550    0.00000212    0.00000271
     atom    6 type  1   force =     0.00001162   -0.00000269   -0.00000246
     atom    7 type  1   force =    -0.00000770   -0.00001028    0.00000043
     atom    8 type  1   force =     0.00000671    0.00000584    0.00000342
     atom    9 type  1   force =    -0.00001118   -0.00000144   -0.00000086
     atom   10 type  1   force =    -0.00000019   -0.00001141   -0.00000066
     atom   11 type  1   force =     0.00000985    0.00001005   -0.00000059
     atom   12 type  1   force =    -0.00000036   -0.00000546   -0.00000085
     atom   13 type  1   force =    -0.00001072   -0.00000930    0.00000138
     atom   14 type  1   force =     0.00000962   -0.00001160    0.00000458
     atom   15 type  1   force =     0.00001041   -0.00001185    0.00000061
     atom   16 type  1   force =    -0.00000709   -0.00001059   -0.00000025
     atom   17 type  1   force =    -0.00000692    0.00001106   -0.00000167
     atom   18 type  1   force =    -0.00000550    0.00000323   -0.00000268
     atom   19 type  1   force =     0.00000171    0.00001021   -0.00000053
     atom   20 type  1   force =    -0.00001029   -0.00000652   -0.00000225
     atom   21 type  1   force =    -0.00000759   -0.00000295    0.00000274
     atom   22 type  1   force =    -0.00000784    0.00000999   -0.00000062
     atom   23 type  1   force =    -0.00000240   -0.00000799    0.00000018
     atom   24 type  1   force =     0.00000702   -0.00000223    0.00000323
     atom   25 type  1   force =     0.00000808   -0.00001257   -0.00000256
     atom   26 type  1   force =     0.00000123    0.00000877    0.00000565
     atom   27 type  1   force =    -0.00000180   -0.00000619    0.00000344
     atom   28 type  1   force =     0.00000648   -0.00000321    0.00000081
     atom   29 type  1   force =     0.00000256   -0.00001214   -0.00000130
     atom   30 type  1   force =    -0.00000747    0.00000673    0.00000046
     atom   31 type  1   force =     0.00000260   -0.00000342    0.00000204
     atom   32 type  1   force =     0.00000960    0.00001040    0.00000156
     atom   33 type  1   force =     0.00000642    0.00000728    0.00000056
     atom   34 type  1   force =    -0.00000261    0.00000310   -0.00000224
     atom   35 type  1   force =    -0.00000420   -0.00000573    0.00000022
     atom   36 type  1   force =    -0.00000546    0.00000695    0.00000108
     atom   37 type  1   force =     0.00001349    0.00000241   -0.00000228
     atom   38 type  1   force =    -0.00000015   -0.00000536   -0.00000510
     atom   39 type  1   force =    -0.00000335   -0.00000218    0.00000131
     atom   40 type  1   force =     0.00000449    0.00000376   -0.00000074
     atom   41 type  1   force =     0.00000776   -0.00001306    0.00000251
     atom   42 type  1   force =    -0.00000608   -0.00000660   -0.00000086
     atom   43 type  1   force =     0.00000239   -0.00000418    0.00000225
     atom   44 type  1   force =     0.00000945    0.00000625    0.00000196
     atom   45 type  1   force =     0.00001227   -0.00000876   -0.00000438
     atom   46 type  1   force =    -0.00000392    0.00000546   -0.00000102
     atom   47 type  1   force =    -0.00000473   -0.00000724    0.00000294
     atom   48 type  1   force =    -0.00000787    0.00000636    0.00000011
     atom   49 type  1   force =     0.00000364    0.00001230    0.00000021
     atom   50 type  1   force =     0.00000204   -0.00000427    0.00000271
     atom   51 type  1   force =    -0.00000648   -0.00000709    0.00000106
     atom   52 type  1   force =    -0.00000317    0.00000894    0.00000213
     atom   53 type  1   force =     0.00000131   -0.00000960   -0.00000092
     atom   54 type  1   force =     0.00000923   -0.00000701   -0.00000571
     atom   55 type  1   force =    -0.00001424    0.00000333   -0.00000046
     atom   56 type  1   force =     0.00001030   -0.00001228   -0.00000186
     atom   57 type  1   force =     0.00000082    0.00001367   -0.00000340
     atom   58 type  1   force =    -0.00000711    0.00000804    0.00000204
     atom   59 type  1   force =     0.00000612    0.00001410    0.00000403
     atom   60 type  1   force =     0.00000431    0.00001296    0.00000359
     atom   61 type  1   force =    -0.00000743   -0.00001038    0.00000005
     atom   62 type  1   force =     0.00000420   -0.00000934   -0.00000117
     atom   63 type  1   force =     0.00000837    0.00000493   -0.00000568
     atom   64 type  1   force =     0.00000888    0.00000635   -0.00000237
     atom   65 type  2   force =    -0.00000323   -0.00000217    0.00000069
     atom   66 type  2   force =    -0.00000111   -0.00000332    0.00000027
     atom   67 type  2   force =    -0.00000026   -0.00000071   -0.00000141
     atom   68 type  2   force =     0.00000233    0.00000192   -0.00000026
     atom   69 type  2   force =     0.00000103   -0.00000196   -0.00000066
     atom   70 type  2   force =     0.00000272    0.00000364   -0.00000099
     atom   71 type  2   force =     0.00000142    0.00000193   -0.00000114
     atom   72 type  2   force =    -0.00000030    0.00000080   -0.00000156

     Total force =     0.137201     Total SCF correction =     0.000091


     Computing stress (Cartesian axis) and pressure

          total   stress  (Ry/bohr**3)                   (kbar)     P=   -0.10
  -0.00008419  -0.00000815  -0.00004234        -12.38     -1.20     -6.23
  -0.00000815   0.00005464  -0.00005030         -1.20      8.04     -7.40
  -0.00004234  -0.00005030   0.00002743         -6.23     -7.40      4.04

     kinetic stress (kbar)   2188.94      2.69     -0.30
                                2.69   2215.37     -6.37
                               -0.30     -6.37   2214.92

     local   stress (kbar)  -1298.43    -66.90     34.38
                              -66.90  -1307.73     38.89
                               34.38     38.89  -1372.88

     nonloc. stress (kbar)   2420.18      4.52      1.35
                                4.52   2413.02     -2.18
                                1.35     -2.18   2417.54

     hartree stress (kbar)    238.74     18.33    -13.96
                               18.33    261.42    -13.17
                              -13.96    -13.17    275.97

     exc-cor stress (kbar)   -777.15     -0.02     -0.06
                               -0.02   -777.27     -0.16
                               -0.06     -0.16   -777.22

     corecor stress (kbar)      0.00      0.00      0.00
                                0.00      0.00      0.00
                                0.00      0.00      0.00

     ewald   stress (kbar)  -2784.67     40.18    -27.64
                               40.18  -2796.76    -24.41
                              -27.64    -24.41  -2754.29

     hubbard stress (kbar)      0.00      0.00      0.00
                                0.00      0.00      0.00
                                0.00      0.00      0.00

     london  stress (kbar)      0.00      0.00      0.00
                                0.00      0.00      0.00
                                0.00      0.00      0.00

     DFT-D3  stress (kbar)      0.00      0.00      0.00
                                0.00      0.00      0.00
                                0.00      0.00      0.00

     XDM     stress (kbar)      0.00      0.00      0.00
                                0.00      0.00      0.00
                                0.00      0.00      0.00

     dft-nl  stress (kbar)      0.00      0.00      0.00
                                0.00      0.00      0.00
                                0.00      0.00      0.00

     TS-vdW  stress (kbar)      0.00      0.00      0.00
                                0.00      0.00      0.00
                                0.00      0.00      0.00



     Writing output data file amorph_optimize4.save

     init_run     :     24.17s CPU     25.07s WALL (       1 calls)
     electrons    :    713.92s CPU    757.49s WALL (       1 calls)
     forces       :      5.50s CPU      5.52s WALL (       1 calls)
     stress       :     25.92s CPU     26.01s WALL (       1 calls)

     Called by init_run:
     wfcinit      :     23.52s CPU     24.38s WALL (       1 calls)
     wfcinit:atom :      0.13s CPU      0.27s WALL (      14 calls)
     wfcinit:wfcr :     21.36s CPU     21.75s WALL (      14 calls)
     potinit      :      0.16s CPU      0.17s WALL (       1 calls)

     Called by electrons:
     c_bands      :    639.07s CPU    680.15s WALL (      17 calls)
     sum_band     :     73.23s CPU     73.97s WALL (      17 calls)
     v_of_rho     :      1.42s CPU      1.44s WALL (      17 calls)
     v_h          :      0.07s CPU      0.07s WALL (      17 calls)
     v_xc         :      1.35s CPU      1.37s WALL (      17 calls)
     mix_rho      :      0.23s CPU      0.25s WALL (      17 calls)

     Called by c_bands:
     init_us_2    :      3.67s CPU      3.72s WALL (     518 calls)
     cegterg      :    631.21s CPU    648.97s WALL (     238 calls)

     Called by sum_band:

     Called by *egterg:
     h_psi        :    428.55s CPU    432.01s WALL (    1081 calls)
     g_psi        :      1.36s CPU      1.36s WALL (     829 calls)
     cdiaghg      :     82.75s CPU     83.01s WALL (    1053 calls)
     cegterg:over :     55.63s CPU     55.83s WALL (     829 calls)
     cegterg:upda :     35.94s CPU     36.09s WALL (     829 calls)
     cegterg:last :     19.83s CPU     19.93s WALL (     238 calls)

     Called by h_psi:
     h_psi:pot    :    425.77s CPU    429.07s WALL (    1081 calls)
     h_psi:calbec :     44.44s CPU     44.66s WALL (    1081 calls)
     vloc_psi     :    338.54s CPU    341.47s WALL (    1081 calls)
     add_vuspsi   :     42.78s CPU     42.93s WALL (    1081 calls)

     General routines
     calbec       :     49.95s CPU     50.20s WALL (    1151 calls)
     fft          :      0.62s CPU      0.64s WALL (     196 calls)
     fftw         :    374.06s CPU    377.29s WALL (  222674 calls)

     Parallel routines
     fft_scatt_xy :     31.38s CPU     31.65s WALL (  222870 calls)
     fft_scatt_yz :     71.34s CPU     72.03s WALL (  222870 calls)

     PWSCF        : 12m51.02s CPU    13m39.85s WALL


   This run was terminated on:   8:54: 5   7Nov2020            

=------------------------------------------------------------------------------=
   JOB DONE.
=------------------------------------------------------------------------------=
