
     Program PWSCF v.6.2 (svn rev. 14038) starts on  7Nov2020 at  8:34:28 

     This program is part of the open-source Quantum ESPRESSO suite
     for quantum simulation of materials; please cite
         "P. Giannozzi et al., J. Phys.:Condens. Matter 21 395502 (2009);
         "P. Giannozzi et al., J. Phys.:Condens. Matter 29 465901 (2017);
          URL http://www.quantum-espresso.org", 
     in publications or presentations arising from this work. More details at
     http://www.quantum-espresso.org/quote

     Parallel version (MPI), running on     8 processors

     MPI processes distributed on     1 nodes
     R & G space division:  proc/nbgrp/npool/nimage =       8
     Waiting for input...
     Reading input from standard input
Warning: card &IONS ignored
Warning: card / ignored

     Current dimensions of program PWSCF are:
     Max number of different atomic species (ntypx) = 10
     Max number of k-points (npk) =  40000
     Max angular momentum in pseudopotentials (lmaxx) =  3

     Subspace diagonalization in iterative solution of the eigenvalue problem:
     a serial algorithm will be used


     Parallelization info
     --------------------
     sticks:   dense  smooth     PW     G-vecs:    dense   smooth      PW
     Min        1608    1608    423               136829   136829   18523
     Max        1609    1609    424               136831   136831   18524
     Sum       12871   12871   3389              1094639  1094639  148187



     bravais-lattice index     =            0
     lattice parameter (alat)  =      31.0924  a.u.
     unit-cell volume          =   29767.8615 (a.u.)^3
     number of atoms/cell      =          230
     number of atomic types    =            2
     number of electrons       =       878.00
     number of Kohn-Sham states=          527
     kinetic-energy cutoff     =      42.0000  Ry
     charge density cutoff     =     168.0000  Ry
     convergence threshold     =      1.0E-08
     mixing beta               =       0.3000
     number of iterations used =            8  plain     mixing
     Exchange-correlation      = SLA-PW-PBX-PBC ( 1  4  3  4 0 0)

     celldm(1)=  31.092392  celldm(2)=   0.000000  celldm(3)=   0.000000
     celldm(4)=   0.000000  celldm(5)=   0.000000  celldm(6)=   0.000000

     crystal axes: (cart. coord. in units of alat)
               a(1) = (   1.000000   0.000000   0.000000 )  
               a(2) = (  -0.004065   0.995567   0.000000 )  
               a(3) = (   0.019930   0.000535   0.994752 )  

     reciprocal axes: (cart. coord. in units 2 pi/alat)
               b(1) = (  1.000000  0.004083 -0.020037 )  
               b(2) = (  0.000000  1.004453 -0.000540 )  
               b(3) = (  0.000000 -0.000000  1.005276 )  


     PseudoPot. # 1 for Si read from file:
     ./Si.pbe-hgh.UPF
     MD5 check sum: 9a9f0f6e09139bfdb36b03ff6bc35900
     Pseudo is Norm-conserving, Zval =  4.0
     Generated in analytical, separable form
     Using radial grid of 1141 points,  3 beta functions with: 
                l(1) =   0
                l(2) =   0
                l(3) =   1

     PseudoPot. # 2 for H  read from file:
     ./H.pbe-hgh.UPF
     MD5 check sum: 5f350582108a937bec95f27f5610ab08
     Pseudo is Norm-conserving, Zval =  1.0
     Generated in analytical, separable form
     Using radial grid of  929 points,  0 beta functions with: 

     atomic species   valence    mass     pseudopotential
        Si             4.00    28.08000     Si( 1.00)
        H              1.00     1.00784     H ( 1.00)

     No symmetry found


                                    s                        frac. trans.

      isym =  1     identity                                     

 cryst.   s( 1) = (     1          0          0      )
                  (     0          1          0      )
                  (     0          0          1      )

 cart.    s( 1) = (  1.0000000  0.0000000  0.0000000 )
                  (  0.0000000  1.0000000  0.0000000 )
                  (  0.0000000  0.0000000  1.0000000 )


   Cartesian axes

     site n.     atom                  positions (alat units)
         1           Si  tau(   1) = (   0.5145746   0.2505097   0.8913088  )
         2           Si  tau(   2) = (   0.4491696   0.9099121   0.8520360  )
         3           Si  tau(   3) = (   0.7549628   0.2146979   0.7815608  )
         4           Si  tau(   4) = (   0.6628018   0.2298499   0.1804242  )
         5           Si  tau(   5) = (   0.1136257   0.8120222   0.6226880  )
         6           Si  tau(   6) = (   0.0829269   0.8280310   0.9598433  )
         7           Si  tau(   7) = (   0.4283775   0.9266931   0.3327744  )
         8           Si  tau(   8) = (   0.1095798   0.3537256   0.3718055  )
         9           Si  tau(   9) = (   0.9511209   0.9685710   0.6576913  )
        10           Si  tau(  10) = (   0.3406170   0.7884986   0.1831179  )
        11           Si  tau(  11) = (   0.0356201   0.3499210   0.4930608  )
        12           Si  tau(  12) = (   0.0235584   0.5727686   0.7985024  )
        13           Si  tau(  13) = (   0.6303589   0.1982789   0.7126941  )
        14           Si  tau(  14) = (   0.8872441   0.7794173   0.3058445  )
        15           Si  tau(  15) = (   0.8250457   0.3854165   0.1644037  )
        16           Si  tau(  16) = (   0.2954001   0.7381432   0.9707766  )
        17           Si  tau(  17) = (   0.0992067   0.6383920   0.2460450  )
        18           Si  tau(  18) = (   0.0114337   0.4362756   0.3043315  )
        19           Si  tau(  19) = (   0.3241825   0.1083656   0.2095545  )
        20           Si  tau(  20) = (   0.7050876   0.3860242   0.3523253  )
        21           Si  tau(  21) = (   0.8227388   0.5627098   0.3437664  )
        22           Si  tau(  22) = (   0.6691067   0.4085569   0.7839243  )
        23           Si  tau(  23) = (   0.5329435   0.0274554   0.8173580  )
        24           Si  tau(  24) = (   0.4820718   0.2702540   0.3213119  )
        25           Si  tau(  25) = (   0.8840065   0.8623551   0.0856539  )
        26           Si  tau(  26) = (   0.7771139   0.0147023   0.7497466  )
        27           Si  tau(  27) = (   0.6380775   0.9681402   0.7378315  )
        28           Si  tau(  28) = (   0.8486994   0.2128489   0.6737157  )
        29           Si  tau(  29) = (   0.9902863   0.4829346   0.5225254  )
        30           Si  tau(  30) = (   0.6331662   0.8283831   0.7592475  )
        31           Si  tau(  31) = (   0.7559233   0.4734561   0.2525924  )
        32           Si  tau(  32) = (   0.6174671   0.1935474   0.9711068  )
        33           Si  tau(  33) = (   0.5917315   0.4078060   0.0073105  )
        34           Si  tau(  34) = (   1.0130796   0.5522306   0.9365621  )
        35           Si  tau(  35) = (   0.5746255   0.7027603   0.5588428  )
        36           Si  tau(  36) = (   0.1745876   0.3655489   0.8125374  )
        37           Si  tau(  37) = (   0.6646828   0.1265463   0.5923202  )
        38           Si  tau(  38) = (   0.7738522   0.9422340   0.1349023  )
        39           Si  tau(  39) = (   0.1375462   0.0500513   0.8532357  )
        40           Si  tau(  40) = (   0.3920363   0.7583504   0.0525742  )
        41           Si  tau(  41) = (   0.6211234   0.0206887   0.2710879  )
        42           Si  tau(  42) = (   0.7498685   0.6337227   0.6938993  )
        43           Si  tau(  43) = (   0.5649864   0.6586671   0.9281992  )
        44           Si  tau(  44) = (   0.0881591   0.9785025   0.3590011  )
        45           Si  tau(  45) = (   0.3621557   0.1099628   0.8231494  )
        46           Si  tau(  46) = (   0.8222041   0.0778264   0.1702747  )
        47           Si  tau(  47) = (   0.0940158   0.3981372   0.7003144  )
        48           Si  tau(  48) = (   0.2767297   0.9650314   0.5402747  )
        49           Si  tau(  49) = (   0.0785919   0.5824657   0.5767642  )
        50           Si  tau(  50) = (   0.4356244   0.2707790   0.5552119  )
        51           Si  tau(  51) = (   0.6788977   0.0640615   0.9364149  )
        52           Si  tau(  52) = (   0.0316298   0.3415597   0.0179863  )
        53           Si  tau(  53) = (   0.1225547   0.2226385   0.3110520  )
        54           Si  tau(  54) = (   0.9183629   0.1362578   0.9160006  )
        55           Si  tau(  55) = (   0.6660350   0.4493918   0.4740053  )
        56           Si  tau(  56) = (   0.2334619   0.5934676   0.2654466  )
        57           Si  tau(  57) = (   0.4630332   0.0859004   0.4668730  )
        58           Si  tau(  58) = (   0.3557539   0.4933723   0.0412851  )
        59           Si  tau(  59) = (   0.5685246   0.6919668   0.3263264  )
        60           Si  tau(  60) = (   0.9990249   0.2215527   0.0893553  )
        61           Si  tau(  61) = (   0.9662107   0.4544151   0.7363732  )
        62           Si  tau(  62) = (   0.0955553   0.2909473   0.6109369  )
        63           Si  tau(  63) = (   0.4997666   0.3709654   0.6285371  )
        64           Si  tau(  64) = (   0.8196789   0.8935414   0.8137321  )
        65           Si  tau(  65) = (   0.1855505   0.6467695   0.0399278  )
        66           Si  tau(  66) = (   0.1854148   0.1518237   0.9459714  )
        67           Si  tau(  67) = (   0.4550383   0.8686704   0.2086552  )
        68           Si  tau(  68) = (   0.8734929   0.0880335   0.4004205  )
        69           Si  tau(  69) = (   0.8669079   0.9496063   0.4407219  )
        70           Si  tau(  70) = (   0.6708789   0.5502575   0.7794688  )
        71           Si  tau(  71) = (   0.2441433   0.6998523   0.7570670  )
        72           Si  tau(  72) = (   0.5964728   0.9059397   0.4905620  )
        73           Si  tau(  73) = (   0.1652988   0.0360076   0.5954298  )
        74           Si  tau(  74) = (   0.0937378   0.1222296   0.4109570  )
        75           Si  tau(  75) = (   0.9498472   0.4268912   0.9597657  )
        76           Si  tau(  76) = (   0.9149251   0.5705893   0.1466095  )
        77           Si  tau(  77) = (   0.2422024   0.5609118   0.4029214  )
        78           Si  tau(  78) = (   1.0015272   0.0208564   0.8937509  )
        79           Si  tau(  79) = (   0.2659816   0.8518749   0.4507898  )
        80           Si  tau(  80) = (   0.7858297   0.8649780   0.3551971  )
        81           Si  tau(  81) = (   0.3740864   0.5862983   0.4428795  )
        82           Si  tau(  82) = (   0.4698611   0.4138395   0.0877226  )
        83           Si  tau(  83) = (   0.7695650   0.3359901   0.8525483  )
        84           Si  tau(  84) = (   0.3991182   0.8142110   0.4162451  )
        85           Si  tau(  85) = (   0.7953092   0.0818952   0.6245113  )
        86           Si  tau(  86) = (   0.6519865   0.6846261   0.4423096  )
        87           Si  tau(  87) = (   0.9573839   0.9209227   0.7957539  )
        88           Si  tau(  88) = (   0.9893929   0.9370914   0.0172572  )
        89           Si  tau(  89) = (   0.3223694   0.0348098   0.0860146  )
        90           Si  tau(  90) = (   0.6773789   0.7470271   0.6512254  )
        91           Si  tau(  91) = (   0.3542010   0.5308389   0.8977419  )
        92           Si  tau(  92) = (   0.3382908   0.9716620   0.7868758  )
        93           Si  tau(  93) = (   0.1172794   0.1422543   0.0866469  )
        94           Si  tau(  94) = (   0.2083467   0.9373606   0.0902654  )
        95           Si  tau(  95) = (   0.3006799   0.3097736   0.7834210  )
        96           Si  tau(  96) = (   0.7083423   0.3035377   0.9804495  )
        97           Si  tau(  97) = (   0.3213497   0.0740844   0.4500199  )
        98           Si  tau(  98) = (   0.0588053   0.9328164   0.5746394  )
        99           Si  tau(  99) = (   0.9504782   0.1162947   0.6270330  )
       100           Si  tau( 100) = (   0.9643882   0.8462159   0.2076644  )
       101           Si  tau( 101) = (   0.3414857   0.6683348   0.8573181  )
       102           Si  tau( 102) = (   0.1634408   0.8199206   0.7571028  )
       103           Si  tau( 103) = (   0.0491859   0.6535882   0.3790354  )
       104           Si  tau( 104) = (   0.7857250   0.8075139   0.5774665  )
       105           Si  tau( 105) = (   0.8964400   0.7161483   0.5488206  )
       106           Si  tau( 106) = (   0.6273561   0.3332618   0.6720804  )
       107           Si  tau( 107) = (   0.0694845   0.7242339   0.0592377  )
       108           Si  tau( 108) = (   0.0869102   0.7705780   0.1896415  )
       109           Si  tau( 109) = (   0.8330316   0.9432321   0.5804478  )
       110           Si  tau( 110) = (   0.3133667   0.3295260   0.9305160  )
       111           Si  tau( 111) = (   0.7693269   0.2732434   0.0966454  )
       112           Si  tau( 112) = (   0.9621347   0.7594416   0.4249243  )
       113           Si  tau( 113) = (   0.8372795   0.4783117   0.0605530  )
       114           Si  tau( 114) = (   0.6879237   0.5604269   0.1601909  )
       115           Si  tau( 115) = (   0.6025300   0.0008629   0.6024050  )
       116           Si  tau( 116) = (   0.2214384   0.8621192   0.9617184  )
       117           Si  tau( 117) = (   0.2463640   0.4002560   0.0599457  )
       118           Si  tau( 118) = (   0.0410516   0.8071285   0.8254632  )
       119           Si  tau( 119) = (   0.8434304   0.6604178   0.2420321  )
       120           Si  tau( 120) = (   0.8380701   0.7317300   0.0322670  )
       121           Si  tau( 121) = (   0.5336392   0.5745990   0.7458671  )
       122           Si  tau( 122) = (   0.0190081   0.9761237   0.2360059  )
       123           Si  tau( 123) = (   0.9112487   0.3432294   0.2663558  )
       124           Si  tau( 124) = (   0.1528471   0.6419426   0.4745147  )
       125           Si  tau( 125) = (   0.7405941   0.5726672   0.4617460  )
       126           Si  tau( 126) = (   0.4429929   0.9607127   0.0978311  )
       127           Si  tau( 127) = (   0.6937567   0.5982152   0.9132521  )
       128           Si  tau( 128) = (   0.4051289   0.2375901   0.9817169  )
       129           Si  tau( 129) = (   0.3177859   0.0166220   0.3206882  )
       130           Si  tau( 130) = (   0.5722807   0.5808944   0.2372752  )
       131           Si  tau( 131) = (   0.3725915   0.5965726   0.5837175  )
       132           Si  tau( 132) = (   0.8678210   0.1691544   0.0641633  )
       133           Si  tau( 133) = (   0.3843271   0.6134612   0.1092317  )
       134           Si  tau( 134) = (   0.4913270   0.8130222   0.5253355  )
       135           Si  tau( 135) = (   0.2109228   0.8470562   0.2022759  )
       136           Si  tau( 136) = (   0.1714931   0.5054778   0.6532756  )
       137           Si  tau( 137) = (   0.1644658   0.5816089   0.7701321  )
       138           Si  tau( 138) = (   0.1123415   0.2730679   0.9017995  )
       139           Si  tau( 139) = (   0.4574624   0.4767673   0.8156738  )
       140           Si  tau( 140) = (   0.4015184   0.2901779   0.1167391  )
       141           Si  tau( 141) = (   0.8226966   0.2995325   0.3673918  )
       142           Si  tau( 142) = (   0.5564326   0.3878802   0.8712347  )
       143           Si  tau( 143) = (   0.9532261   0.6492650   0.0373719  )
       144           Si  tau( 144) = (   0.3081378   0.4720849   0.6189039  )
       145           Si  tau( 145) = (   0.0433468   0.1930114   0.7035215  )
       146           Si  tau( 146) = (   0.3890342   0.4041071   0.7160176  )
       147           Si  tau( 147) = (   0.4763713   0.6815756   0.8180244  )
       148           Si  tau( 148) = (   0.7021319   0.3352649   0.5516567  )
       149           Si  tau( 149) = (   0.2058528   0.1909574   0.1958060  )
       150           Si  tau( 150) = (   0.4962682   0.4646467   0.2181024  )
       151           Si  tau( 151) = (   0.5002602   0.1644334   0.7789725  )
       152           Si  tau( 152) = (   0.2120221   0.9133715   0.3311888  )
       153           Si  tau( 153) = (   0.8376227   0.7087649   0.7761245  )
       154           Si  tau( 154) = (   0.3218194   0.3627306   0.5201479  )
       155           Si  tau( 155) = (   0.4163399   0.3993905   0.3148898  )
       156           Si  tau( 156) = (   0.5154048   0.2158119   0.4500069  )
       157           Si  tau( 157) = (   0.0162116   0.7053661   0.6280775  )
       158           Si  tau( 158) = (   0.9109776   0.3647238   0.8371237  )
       159           Si  tau( 159) = (   0.0419009   0.5159465   0.1909118  )
       160           Si  tau( 160) = (   0.7599574   0.1728192   0.3810398  )
       161           Si  tau( 161) = (   0.3647130   0.9468150   0.6486709  )
       162           Si  tau( 162) = (   0.5091895   0.6674679   0.0689017  )
       163           Si  tau( 163) = (   0.5650995   0.0325768   0.1395140  )
       164           Si  tau( 164) = (   0.9568040   0.5322137   0.3939576  )
       165           Si  tau( 165) = (   1.0033622   0.9004357   0.4452391  )
       166           Si  tau( 166) = (   0.1594210   0.1097453   0.7223054  )
       167           Si  tau( 167) = (   0.4224647   0.4536881   0.4433212  )
       168           Si  tau( 168) = (   0.9759438   0.6982605   0.7629599  )
       169           Si  tau( 169) = (   0.3264667   0.1226826   0.9629359  )
       170           Si  tau( 170) = (   0.9231660   0.0748251   0.2671775  )
       171           Si  tau( 171) = (   0.6949256   0.5072364   0.0280713  )
       172           Si  tau( 172) = (   0.9684041   0.1485972   0.4850371  )
       173           Si  tau( 173) = (   0.4171371   0.1684846   0.6573222  )
       174           Si  tau( 174) = (   0.7151145   0.1247687   0.2560671  )
       175           Si  tau( 175) = (   0.1117681   0.4396423   0.0852940  )
       176           Si  tau( 176) = (   0.7837051   0.7081700   0.9067295  )
       177           Si  tau( 177) = (   0.7476945   0.6884035   0.1369963  )
       178           Si  tau( 178) = (   0.2149571   0.9284700   0.8363299  )
       179           Si  tau( 179) = (   0.4458310   0.1910318   0.2064140  )
       180           Si  tau( 180) = (   0.7096983   0.8256352   0.8813155  )
       181           Si  tau( 181) = (   0.4852863   0.8704911   0.9861753  )
       182           Si  tau( 182) = (   0.6202017   0.7526194   0.1070741  )
       183           Si  tau( 183) = (   0.1478441   0.5327094   0.9753833  )
       184           Si  tau( 184) = (   0.8875758   0.4632331   0.6165026  )
       185           Si  tau( 185) = (   0.5551557   0.1700779   0.1134425  )
       186           Si  tau( 186) = (   0.0155379   0.2600621   0.2243932  )
       187           Si  tau( 187) = (   0.2031502   0.1401369   0.5017818  )
       188           Si  tau( 188) = (   0.6101133   0.8542018   0.0047784  )
       189           Si  tau( 189) = (   0.7931849   0.1044292   0.8579647  )
       190           Si  tau( 190) = (   0.2309591   0.2550346   0.5840279  )
       191           Si  tau( 191) = (   0.4151880   0.8158518   0.6441438  )
       192           Si  tau( 192) = (   0.4289546   0.6872377   0.3574035  )
       193           Si  tau( 193) = (   0.7068137   0.8152259   0.4595476  )
       194           Si  tau( 194) = (   0.0850750   0.0056851   0.1093989  )
       195           Si  tau( 195) = (   0.5847029   0.8051407   0.2333688  )
       196           Si  tau( 196) = (   0.2207614   0.4915851   0.8633632  )
       197           Si  tau( 197) = (   0.2102713   0.7554750   0.5355875  )
       198           Si  tau( 198) = (   0.8388943   0.3269879   0.5871196  )
       199           Si  tau( 199) = (   0.2788185   0.4058593   0.2789544  )
       200           Si  tau( 200) = (   0.3107319   0.7152178   0.6310717  )
       201           Si  tau( 201) = (   0.5391801   0.9916106   0.3894544  )
       202           Si  tau( 202) = (   0.6615209   0.9743760   0.0554968  )
       203           Si  tau( 203) = (   0.9144288   0.2822521   0.4760197  )
       204           Si  tau( 204) = (   0.4668542   0.0441961   0.6051027  )
       205           Si  tau( 205) = (   0.2700310   0.3166532   0.1691228  )
       206           Si  tau( 206) = (   0.8222506   0.5902004   0.5789795  )
       207           Si  tau( 207) = (   0.5338233   0.4674784   0.5280592  )
       208           Si  tau( 208) = (   0.9882496   0.2390550   0.8344737  )
       209           Si  tau( 209) = (   0.4940046   0.8081816   0.7638841  )
       210           Si  tau( 210) = (   0.2200130   0.4207983   0.4280518  )
       211           Si  tau( 211) = (   0.6598563   0.2143422   0.4809726  )
       212           Si  tau( 212) = (   0.5113268   0.5856059   0.6067520  )
       213           Si  tau( 213) = (   0.6091295   0.3162770   0.2767251  )
       214           Si  tau( 214) = (   0.2832805   0.1879803   0.7119729  )
       215           Si  tau( 215) = (   0.6956025   0.9000793   0.2508476  )
       216           Si  tau( 216) = (   0.3528437   0.6611777   0.2388579  )
       217           H   tau( 217) = (   0.5971588   0.7469688   0.9280450  )
       218           H   tau( 218) = (   0.3746958   0.3979672   0.9156235  )
       219           H   tau( 219) = (   0.5227325   0.6319177   0.1752455  )
       220           H   tau( 220) = (   0.4895172   0.0231787   0.7297790  )
       221           H   tau( 221) = (   0.8242803   0.8055292   0.7542489  )
       222           H   tau( 222) = (   0.1703059   0.4414646   0.5083183  )
       223           H   tau( 223) = (   0.2578956   0.5030765   0.2309974  )
       224           H   tau( 224) = (   0.2161084   0.6075171   0.1210613  )
       225           H   tau( 225) = (   0.5727529   0.3964922   0.2292585  )
       226           H   tau( 226) = (   0.0579152   0.5517549   0.3832541  )
       227           H   tau( 227) = (   0.9646735   0.1629467   0.2506228  )
       228           H   tau( 228) = (   0.0693344   0.3358812   0.1961363  )
       229           H   tau( 229) = (   0.5664055   0.0414308   0.9110825  )
       230           H   tau( 230) = (   0.6578568   0.9908608   0.8745283  )

   Crystallographic axes

     site n.     atom                  positions (cryst. coord.)
         1           Si  tau(   1) = (  0.4977380  0.2511440  0.8960110  )
         2           Si  tau(   2) = (  0.4358120  0.9135040  0.8565310  )
         3           Si  tau(   3) = (  0.7401790  0.2152320  0.7856840  )
         4           Si  tau(   4) = (  0.6601250  0.2307760  0.1813760  )
         5           Si  tau(   5) = (  0.1044640  0.8153020  0.6259730  )
         6           Si  tau(   6) = (  0.0670749  0.8312000  0.9649070  )
         7           Si  tau(   7) = (  0.4254930  0.9306400  0.3345300  )
         8           Si  tau(   8) = (  0.1035740  0.3551000  0.3737670  )
         9           Si  tau(   9) = (  0.9418970  0.9725290  0.6611610  )
        10           Si  tau(  10) = (  0.3401670  0.7919110  0.1840840  )
        11           Si  tau(  11) = (  0.0271691  0.3512130  0.4956620  )
        12           Si  tau(  12) = (  0.0098970  0.5748880  0.8027150  )
        13           Si  tau(  13) = (  0.6168880  0.1987770  0.7164540  )
        14           Si  tau(  14) = (  0.8842980  0.7827230  0.3074580  )
        15           Si  tau(  15) = (  0.8233250  0.3870440  0.1652710  )
        16           Si  tau(  16) = (  0.2789620  0.7409060  0.9758980  )
        17           Si  tau(  17) = (  0.0968830  0.6411020  0.2473430  )
        18           Si  tau(  18) = (  0.0071169  0.4380540  0.3059370  )
        19           Si  tau(  19) = (  0.3204260  0.1087350  0.2106600  )
        20           Si  tau(  20) = (  0.6996040  0.3875530  0.3541840  )
        21           Si  tau(  21) = (  0.8181480  0.5650300  0.3455800  )
        22           Si  tau(  22) = (  0.6550670  0.4099530  0.7880600  )
        23           Si  tau(  23) = (  0.5166780  0.0271363  0.8216700  )
        24           Si  tau(  24) = (  0.4767370  0.2712840  0.3230070  )
        25           Si  tau(  25) = (  0.8858110  0.8661490  0.0861058  )
        26           Si  tau(  26) = (  0.7621510  0.0143630  0.7537020  )
        27           Si  tau(  27) = (  0.6272460  0.9720530  0.7417240  )
        28           Si  tau(  28) = (  0.8360690  0.2134330  0.6772700  )
        29           Si  tau(  29) = (  0.9817880  0.4848030  0.5252820  )
        30           Si  tau(  30) = (  0.6213350  0.8316620  0.7632530  )
        31           Si  tau(  31) = (  0.7527950  0.4754280  0.2539250  )
        32           Si  tau(  32) = (  0.5987990  0.1938850  0.9762300  )
        33           Si  tau(  33) = (  0.5932500  0.4096180  0.0073490  )
        34           Si  tau(  34) = (  0.9965680  0.5541840  0.9415030  )
        35           Si  tau(  35) = (  0.5662970  0.7055880  0.5617910  )
        36           Si  tau(  36) = (  0.1597990  0.3667380  0.8168240  )
        37           Si  tau(  37) = (  0.6533310  0.1267900  0.5954450  )
        38           Si  tau(  38) = (  0.7749960  0.9463570  0.1356140  )
        39           Si  tau(  39) = (  0.1206540  0.0498135  0.8577370  )
        40           Si  tau(  40) = (  0.3940790  0.7616990  0.0528516  )
        41           Si  tau(  41) = (  0.6157760  0.0206345  0.2725180  )
        42           Si  tau(  42) = (  0.7385520  0.6361700  0.6975600  )
        43           Si  tau(  43) = (  0.5490770  0.6610990  0.9330960  )
        44           Si  tau(  44) = (  0.0849607  0.9826660  0.3608950  )
        45           Si  tau(  45) = (  0.3461110  0.1100080  0.8274920  )
        46           Si  tau(  46) = (  0.8191100  0.0780810  0.1711730  )
        47           Si  tau(  47) = (  0.0816089  0.3995320  0.7040090  )
        48           Si  tau(  48) = (  0.2698440  0.9690370  0.5431250  )
        49           Si  tau(  49) = (  0.0694132  0.5847480  0.5798070  )
        50           Si  tau(  50) = (  0.4256050  0.2716850  0.5581410  )
        51           Si  tau(  51) = (  0.6603960  0.0638412  0.9413550  )
        52           Si  tau(  52) = (  0.0326639  0.3430710  0.0180812  )
        53           Si  tau(  53) = (  0.1172310  0.2234620  0.3126930  )
        54           Si  tau(  54) = (  0.9005650  0.1363700  0.9208330  )
        55           Si  tau(  55) = (  0.6583720  0.4511370  0.4765060  )
        56           Si  tau(  56) = (  0.2305660  0.5959670  0.2668470  )
        57           Si  tau(  57) = (  0.4540290  0.0860308  0.4693360  )
        58           Si  tau(  58) = (  0.3569410  0.4955470  0.0415029  )
        59           Si  tau(  59) = (  0.5648110  0.6948720  0.3280480  )
        60           Si  tau(  60) = (  0.9981390  0.2224910  0.0898267  )
        61           Si  tau(  61) = (  0.9533110  0.4560410  0.7402580  )
        62           Si  tau(  62) = (  0.0845016  0.2919130  0.6141600  )
        63           Si  tau(  63) = (  0.4886870  0.3722780  0.6318530  )
        64           Si  tau(  64) = (  0.8070220  0.8970810  0.8180250  )
        65           Si  tau(  65) = (  0.1873910  0.6496280  0.0401384  )
        66           Si  tau(  66) = (  0.1670800  0.1519890  0.9509620  )
        67           Si  tau(  67) = (  0.4544040  0.8724260  0.2097560  )
        68           Si  tau(  68) = (  0.8658290  0.0882093  0.4025330  )
        69           Si  tau(  69) = (  0.8619540  0.9535970  0.4430470  )
        70           Si  tau(  70) = (  0.6575070  0.5522870  0.7835810  )
        71           Si  tau(  71) = (  0.2318310  0.7025600  0.7610610  )
        72           Si  tau(  72) = (  0.5903420  0.9097090  0.4931500  )
        73           Si  tau(  73) = (  0.1535150  0.0358465  0.5985710  )
        74           Si  tau(  74) = (  0.0860024  0.1225520  0.4131250  )
        75           Si  tau(  75) = (  0.9323590  0.4282740  0.9648290  )
        76           Si  tau(  76) = (  0.9143170  0.5730510  0.1473830  )
        77           Si  tau(  77) = (  0.2364190  0.5631920  0.4050470  )
        78           Si  tau(  78) = (  0.9837040  0.0204667  0.8984660  )
        79           Si  tau(  79) = (  0.2604270  0.8554250  0.4531680  )
        80           Si  tau(  80) = (  0.7822440  0.8686380  0.3570710  )
        81           Si  tau(  81) = (  0.3676060  0.5886700  0.4452160  )
        82           Si  tau(  82) = (  0.4697930  0.4156350  0.0881854  )
        83           Si  tau(  83) = (  0.7538540  0.3370260  0.8570460  )
        84           Si  tau(  84) = (  0.3941020  0.8176120  0.4184410  )
        85           Si  tau(  85) = (  0.7831300  0.0819227  0.6278060  )
        86           Si  tau(  86) = (  0.6459190  0.6874360  0.4446430  )
        87           Si  tau(  87) = (  0.9451990  0.9245940  0.7999520  )
        88           Si  tau(  88) = (  0.9928730  0.9412550  0.0173482  )
        89           Si  tau(  89) = (  0.3207880  0.0349184  0.0864684  )
        90           Si  tau(  90) = (  0.6673800  0.7500020  0.6546610  )
        91           Si  tau(  91) = (  0.3383800  0.5327180  0.9024780  )
        92           Si  tau(  92) = (  0.3264910  0.9755640  0.7910270  )
        93           Si  tau(  93) = (  0.1161240  0.1428410  0.0871040  )
        94           Si  tau(  94) = (  0.2103650  0.9414860  0.0907416  )
        95           Si  tau(  95) = (  0.2862470  0.3107300  0.7875540  )
        96           Si  tau(  96) = (  0.6899360  0.3043600  0.9856220  )
        97           Si  tau(  97) = (  0.3126350  0.0741713  0.4523940  )
        98           Si  tau(  98) = (  0.0510995  0.9366600  0.5776710  )
        99           Si  tau(  99) = (  0.9383890  0.1164740  0.6303410  )
       100           Si  tau( 100) = (  0.9636820  0.8498720  0.2087600  )
       101           Si  tau( 101) = (  0.3270360  0.6708480  0.8618410  )
       102           Si  tau( 102) = (  0.1516180  0.8231630  0.7610970  )
       103           Si  tau( 103) = (  0.0442595  0.6562940  0.3810350  )
       104           Si  tau( 104) = (  0.7774510  0.8107980  0.5805130  )
       105           Si  tau( 105) = (  0.8883670  0.7190410  0.5517160  )
       106           Si  tau( 106) = (  0.6152500  0.3343830  0.6756260  )
       107           Si  tau( 107) = (  0.0712544  0.7274270  0.0595502  )
       108           Si  tau( 108) = (  0.0862564  0.7739070  0.1906420  )
       109           Si  tau( 109) = (  0.8252520  0.9471190  0.5835100  )
       110           Si  tau( 110) = (  0.2960670  0.3304910  0.9354250  )
       111           Si  tau( 111) = (  0.7685060  0.2744080  0.0971553  )
       112           Si  tau( 112) = (  0.9567210  0.7625940  0.4271660  )
       113           Si  tau( 113) = (  0.8380190  0.4804090  0.0608725  )
       114           Si  tau( 114) = (  0.6870020  0.5628360  0.1610360  )
       115           Si  tau( 115) = (  0.5904630  0.0005415  0.6055830  )
       116           Si  tau( 116) = (  0.2056880  0.8654390  0.9667920  )
       117           Si  tau( 117) = (  0.2467970  0.4020060  0.0602619  )
       118           Si  tau( 118) = (  0.0278068  0.8102770  0.8298180  )
       119           Si  tau( 119) = (  0.8412770  0.6632280  0.2433090  )
       120           Si  tau( 120) = (  0.8404110  0.7349710  0.0324372  )
       121           Si  tau( 121) = (  0.5210400  0.5767550  0.7498020  )
       122           Si  tau( 122) = (  0.0182644  0.9803430  0.2372510  )
       123           Si  tau( 123) = (  0.9073130  0.3446140  0.2677610  )
       124           Si  tau( 124) = (  0.1459600  0.6445450  0.4770180  )
       125           Si  tau( 125) = (  0.7336800  0.5749680  0.4641820  )
       126           Si  tau( 126) = (  0.4449550  0.9649380  0.0983472  )
       127           Si  tau( 127) = (  0.6779000  0.6003860  0.9180700  )
       128           Si  tau( 128) = (  0.3864280  0.2381180  0.9868960  )
       129           Si  tau( 129) = (  0.3114280  0.0165229  0.3223800  )
       130           Si  tau( 130) = (  0.5698980  0.5833530  0.2385270  )
       131           Si  tau( 131) = (  0.3633310  0.5989140  0.5867970  )
       132           Si  tau( 132) = (  0.8672260  0.1698730  0.0645018  )
       133           Si  tau( 133) = (  0.3846430  0.6161340  0.1098080  )
       134           Si  tau( 134) = (  0.4841200  0.8163590  0.5281070  )
       135           Si  tau( 135) = (  0.2103280  0.8507190  0.2033430  )
       136           Si  tau( 136) = (  0.1604670  0.5073760  0.6567220  )
       137           Si  tau( 137) = (  0.1514090  0.5837830  0.7741950  )
       138           Si  tau( 138) = (  0.0953867  0.2737970  0.9065570  )
       139           Si  tau( 139) = (  0.4430650  0.4784500  0.8199770  )
       140           Si  tau( 140) = (  0.4003640  0.2914070  0.1173550  )
       141           Si  tau( 141) = (  0.8165580  0.3006680  0.3693300  )
       142           Si  tau( 142) = (  0.5405590  0.3891370  0.8758310  )
       143           Si  tau( 143) = (  0.9551280  0.6521360  0.0375691  )
       144           Si  tau( 144) = (  0.2976640  0.4738530  0.6221690  )
       145           Si  tau( 145) = (  0.0300382  0.1934910  0.7072330  )
       146           Si  tau( 146) = (  0.3763370  0.4055200  0.7197950  )
       147           Si  tau( 147) = (  0.4627630  0.6841690  0.8223400  )
       148           Si  tau( 148) = (  0.6924470  0.3364600  0.5545670  )
       149           Si  tau( 149) = (  0.2027090  0.1917020  0.1968390  )
       150           Si  tau( 150) = (  0.4937950  0.4665980  0.2192530  )
       151           Si  tau( 151) = (  0.4853230  0.1647450  0.7830820  )
       152           Si  tau( 152) = (  0.2091150  0.9172600  0.3329360  )
       153           Si  tau( 153) = (  0.8249650  0.7115020  0.7802190  )
       154           Si  tau( 154) = (  0.3128780  0.3640650  0.5228920  )
       155           Si  tau( 155) = (  0.4116610  0.4009990  0.3165510  )
       156           Si  tau( 156) = (  0.5072690  0.2165300  0.4523810  )
       157           Si  tau( 157) = (  0.0065064  0.7081680  0.6313910  )
       158           Si  tau( 158) = (  0.8956930  0.3658960  0.8415400  )
       159           Si  tau( 159) = (  0.0401820  0.5181410  0.1919190  )
       160           Si  tau( 160) = (  0.7530280  0.1733830  0.3830500  )
       161           Si  tau( 161) = (  0.3555810  0.9506810  0.6520930  )
       162           Si  tau( 162) = (  0.5105340  0.6704030  0.0692652  )
       163           Si  tau( 163) = (  0.5624370  0.0326465  0.1402500  )
       164           Si  tau( 164) = (  0.9510830  0.5343710  0.3960360  )
       165           Si  tau( 165) = (  0.9981170  0.9042050  0.4475880  )
       166           Si  tau( 166) = (  0.1453960  0.1098440  0.7261160  )
       167           Si  tau( 167) = (  0.4154340  0.4554690  0.4456600  )
       168           Si  tau( 168) = (  0.9635070  0.7009580  0.7669850  )
       169           Si  tau( 169) = (  0.3076730  0.1227090  0.9680160  )
       170           Si  tau( 170) = (  0.9181180  0.0750140  0.2685870  )
       171           Si  tau( 171) = (  0.6964340  0.5094800  0.0282194  )
       172           Si  tau( 172) = (  0.9592920  0.1489970  0.4875960  )
       173           Si  tau( 173) = (  0.4046540  0.1688800  0.6607900  )
       174           Si  tau( 174) = (  0.7104930  0.1251860  0.2574180  )
       175           Si  tau( 175) = (  0.1118540  0.4415540  0.0857440  )
       176           Si  tau( 176) = (  0.7684280  0.7108340  0.9115130  )
       177           Si  tau( 177) = (  0.7477600  0.6913950  0.1377190  )
       178           Si  tau( 178) = (  0.2019900  0.9321530  0.8407420  )
       179           Si  tau( 179) = (  0.4424750  0.1917710  0.2075030  )
       180           Si  tau( 180) = (  0.6954100  0.8288360  0.8859650  )
       181           Si  tau( 181) = (  0.4690800  0.8738350  0.9913780  )
       182           Si  tau( 182) = (  0.6211290  0.7559130  0.1076390  )
       183           Si  tau( 183) = (  0.1304750  0.5345550  0.9805290  )
       184           Si  tau( 184) = (  0.8771140  0.4649630  0.6197550  )
       185           Si  tau( 185) = (  0.5535770  0.1707740  0.1140410  )
       186           Si  tau( 186) = (  0.0121034  0.2610990  0.2255770  )
       187           Si  tau( 187) = (  0.1936680  0.1404900  0.5044290  )
       188           Si  tau( 188) = (  0.6135050  0.8580030  0.0048036  )
       189           Si  tau( 189) = (  0.7764200  0.1044310  0.8624910  )
       190           Si  tau( 190) = (  0.2202980  0.2558550  0.5871090  )
       191           Si  tau( 191) = (  0.4056120  0.8191370  0.6475420  )
       192           Si  tau( 192) = (  0.4245990  0.6901050  0.3592890  )
       193           Si  tau( 193) = (  0.7009340  0.8186080  0.4619720  )
       194           Si  tau( 194) = (  0.0829062  0.0056513  0.1099760  )
       195           Si  tau( 195) = (  0.5833140  0.8086000  0.2346000  )
       196           Si  tau( 196) = (  0.2054690  0.4933080  0.8679180  )
       197           Si  tau( 197) = (  0.2026240  0.7585500  0.5384130  )
       198           Si  tau( 198) = (  0.8284650  0.3281270  0.5902170  )
       199           Si  tau( 199) = (  0.2748860  0.4075160  0.2804260  )
       200           Si  tau( 200) = (  0.3010070  0.7180620  0.6344010  )
       201           Si  tau( 201) = (  0.5354250  0.9958160  0.3915090  )
       202           Si  tau( 202) = (  0.6643870  0.9786850  0.0557896  )
       203           Si  tau( 203) = (  0.9060430  0.2832520  0.4785310  )
       204           Si  tau( 204) = (  0.4549100  0.0440662  0.6082950  )
       205           Si  tau( 205) = (  0.2679350  0.3179720  0.1700150  )
       206           Si  tau( 206) = (  0.8130590  0.5925160  0.5820340  )
       207           Si  tau( 207) = (  0.5251510  0.4692750  0.5308450  )
       208           Si  tau( 208) = (  0.9725050  0.2396690  0.8388760  )
       209           Si  tau( 209) = (  0.4819980  0.8113680  0.7679140  )
       210           Si  tau( 210) = (  0.2131540  0.4224410  0.4303100  )
       211           Si  tau( 211) = (  0.6510940  0.2150370  0.4835100  )
       212           Si  tau( 212) = (  0.5015600  0.5878860  0.6099530  )
       213           Si  tau( 213) = (  0.6048760  0.3175360  0.2781850  )
       214           Si  tau( 214) = (  0.2697820  0.1884330  0.7157290  )
       215           Si  tau( 215) = (  0.6942510  0.9039520  0.2521710  )
       216           Si  tau( 216) = (  0.3507570  0.6639930  0.2401180  )
       217           H   tau( 217) = (  0.5816130  0.7497940  0.9329410  )
       218           H   tau( 218) = (  0.3579740  0.3992450  0.9204540  )
       219           H   tau( 219) = (  0.5218010  0.6346370  0.1761700  )
       220           H   tau( 220) = (  0.4749890  0.0228879  0.7336290  )
       221           H   tau( 221) = (  0.8124560  0.8087090  0.7582280  )
       222           H   tau( 222) = (  0.1619230  0.4431560  0.5110000  )
       223           H   tau( 223) = (  0.2553210  0.5051920  0.2322160  )
       224           H   tau( 224) = (  0.2161630  0.6101570  0.1217000  )
       225           H   tau( 225) = (  0.5697780  0.3981340  0.2304680  )
       226           H   tau( 226) = (  0.0524885  0.5540050  0.3852760  )
       227           H   tau( 227) = (  0.9603170  0.1635370  0.2519450  )
       228           H   tau( 228) = (  0.0667757  0.3372710  0.1971710  )
       229           H   tau( 229) = (  0.5483190  0.0411234  0.9158890  )
       230           H   tau( 230) = (  0.6443790  0.9948010  0.8791420  )

     number of k points=     8  Marzari-Vanderbilt smearing, width (Ry)=  0.0500
                       cart. coord. in units 2pi/alat
        k(    1) = (   0.0000000   0.0000000   0.0000000), wk =   0.2500000
        k(    2) = (   0.0000000   0.0000000  -0.5026378), wk =   0.2500000
        k(    3) = (   0.0000000  -0.5022265   0.0002700), wk =   0.2500000
        k(    4) = (   0.0000000  -0.5022265  -0.5023678), wk =   0.2500000
        k(    5) = (  -0.5000000  -0.0020414   0.0100186), wk =   0.2500000
        k(    6) = (  -0.5000000  -0.0020414  -0.4926192), wk =   0.2500000
        k(    7) = (  -0.5000000  -0.5042679   0.0102886), wk =   0.2500000
        k(    8) = (  -0.5000000  -0.5042679  -0.4923492), wk =   0.2500000

                       cryst. coord.
        k(    1) = (   0.0000000   0.0000000   0.0000000), wk =   0.2500000
        k(    2) = (   0.0000000   0.0000000  -0.5000000), wk =   0.2500000
        k(    3) = (   0.0000000  -0.5000000   0.0000000), wk =   0.2500000
        k(    4) = (   0.0000000  -0.5000000  -0.5000000), wk =   0.2500000
        k(    5) = (  -0.5000000   0.0000000   0.0000000), wk =   0.2500000
        k(    6) = (  -0.5000000   0.0000000  -0.5000000), wk =   0.2500000
        k(    7) = (  -0.5000000  -0.5000000   0.0000000), wk =   0.2500000
        k(    8) = (  -0.5000000  -0.5000000  -0.5000000), wk =   0.2500000

     Dense  grid:  1094639 G-vectors     FFT dimensions: ( 135, 128, 128)

     Dynamical RAM for                 wfc:     137.53 MB

     Dynamical RAM for     wfc (w. buffer):    1237.79 MB

     Dynamical RAM for           str. fact:       4.18 MB

     Dynamical RAM for           local pot:       0.00 MB

     Dynamical RAM for          nlocal pot:     281.85 MB

     Dynamical RAM for                qrad:       1.76 MB

     Dynamical RAM for          rho,v,vnew:      12.59 MB

     Dynamical RAM for               rhoin:       4.20 MB

     Dynamical RAM for            rho*nmix:      33.41 MB

     Dynamical RAM for           G-vectors:       8.87 MB

     Dynamical RAM for          h,s,v(r/c):     203.41 MB

     Dynamical RAM for          <psi|beta>:       8.68 MB

     Dynamical RAM for                 psi:     550.13 MB

     Dynamical RAM for                hpsi:     550.13 MB

     Dynamical RAM for      wfcinit/wfcrot:     475.92 MB

     Estimated static dynamical RAM per process >       1.56 GB

     Estimated max dynamical RAM per process >       2.85 GB

     Estimated total dynamical RAM >      22.76 GB

     Initial potential from superposition of free atoms

     starting charge  877.87906, renormalised to  878.00000
     Starting wfc are  878 randomized atomic wfcs

     total cpu time spent up to now is      301.7 secs

     Self-consistent Calculation

     iteration #  1     ecut=    42.00 Ry     beta= 0.30
     Davidson diagonalization with overlap
     ethr =  1.00E-02,  avg # of iterations =  3.0

     Threshold (ethr) on eigenvalues was too large:
     Diagonalizing with lowered threshold

     Davidson diagonalization with overlap
     ethr =  9.13E-04,  avg # of iterations =  2.0

     total cpu time spent up to now is     1529.3 secs

     total energy              =   -1714.33891513 Ry
     Harris-Foulkes estimate   =   -1716.07972273 Ry
     estimated scf accuracy    <       7.91220844 Ry

     iteration #  2     ecut=    42.00 Ry     beta= 0.30
     Davidson diagonalization with overlap
     ethr =  9.01E-04,  avg # of iterations =  2.2

     total cpu time spent up to now is     1986.9 secs

     total energy              =   -1713.98535959 Ry
     Harris-Foulkes estimate   =   -1714.92152015 Ry
     estimated scf accuracy    <       3.89711816 Ry

     iteration #  3     ecut=    42.00 Ry     beta= 0.30
     Davidson diagonalization with overlap
     ethr =  4.44E-04,  avg # of iterations =  5.0

     total cpu time spent up to now is     2655.8 secs

     total energy              =   -1713.71879479 Ry
     Harris-Foulkes estimate   =   -1714.98827068 Ry
     estimated scf accuracy    <       7.07185910 Ry

     iteration #  4     ecut=    42.00 Ry     beta= 0.30
     Davidson diagonalization with overlap
     ethr =  4.44E-04,  avg # of iterations =  5.1

     total cpu time spent up to now is     3306.3 secs

     total energy              =   -1714.08285075 Ry
     Harris-Foulkes estimate   =   -1714.55006690 Ry
     estimated scf accuracy    <       2.57304103 Ry

     iteration #  5     ecut=    42.00 Ry     beta= 0.30
     Davidson diagonalization with overlap
     ethr =  2.93E-04,  avg # of iterations =  3.6

     total cpu time spent up to now is     3822.7 secs

     total energy              =   -1714.24732020 Ry
     Harris-Foulkes estimate   =   -1714.38293485 Ry
     estimated scf accuracy    <       0.73022535 Ry

     iteration #  6     ecut=    42.00 Ry     beta= 0.30
     Davidson diagonalization with overlap
     ethr =  8.32E-05,  avg # of iterations =  5.5

     total cpu time spent up to now is     4431.8 secs

     total energy              =   -1714.30191518 Ry
     Harris-Foulkes estimate   =   -1714.36116308 Ry
     estimated scf accuracy    <       0.36882920 Ry

     iteration #  7     ecut=    42.00 Ry     beta= 0.30
     Davidson diagonalization with overlap
     ethr =  4.20E-05,  avg # of iterations =  3.6

     total cpu time spent up to now is     4922.2 secs

     total energy              =   -1714.32756983 Ry
     Harris-Foulkes estimate   =   -1714.33932921 Ry
     estimated scf accuracy    <       0.05883153 Ry

     iteration #  8     ecut=    42.00 Ry     beta= 0.30
     Davidson diagonalization with overlap
     ethr =  6.70E-06,  avg # of iterations = 10.5

     total cpu time spent up to now is     5727.9 secs

     total energy              =   -1714.33281832 Ry
     Harris-Foulkes estimate   =   -1714.33853406 Ry
     estimated scf accuracy    <       0.03129141 Ry

     iteration #  9     ecut=    42.00 Ry     beta= 0.30
     Davidson diagonalization with overlap
     ethr =  3.56E-06,  avg # of iterations =  7.1

     total cpu time spent up to now is     6338.6 secs

     total energy              =   -1714.33483681 Ry
     Harris-Foulkes estimate   =   -1714.33676896 Ry
     estimated scf accuracy    <       0.00989164 Ry

     iteration # 10     ecut=    42.00 Ry     beta= 0.30
     Davidson diagonalization with overlap
     ethr =  1.13E-06,  avg # of iterations =  4.9

     total cpu time spent up to now is     6906.3 secs

     total energy              =   -1714.33553160 Ry
     Harris-Foulkes estimate   =   -1714.33648384 Ry
     estimated scf accuracy    <       0.00538755 Ry

     iteration # 11     ecut=    42.00 Ry     beta= 0.30
     Davidson diagonalization with overlap
     ethr =  6.14E-07,  avg # of iterations =  3.0

     total cpu time spent up to now is     7399.8 secs

     total energy              =   -1714.33591814 Ry
     Harris-Foulkes estimate   =   -1714.33620348 Ry
     estimated scf accuracy    <       0.00147834 Ry

     iteration # 12     ecut=    42.00 Ry     beta= 0.30
     Davidson diagonalization with overlap
     ethr =  1.68E-07,  avg # of iterations =  3.0

     total cpu time spent up to now is     7895.8 secs

     total energy              =   -1714.33604771 Ry
     Harris-Foulkes estimate   =   -1714.33615535 Ry
     estimated scf accuracy    <       0.00055818 Ry

     iteration # 13     ecut=    42.00 Ry     beta= 0.30
     Davidson diagonalization with overlap
     ethr =  6.36E-08,  avg # of iterations =  3.0

     total cpu time spent up to now is     8397.6 secs

     total energy              =   -1714.33608935 Ry
     Harris-Foulkes estimate   =   -1714.33612404 Ry
     estimated scf accuracy    <       0.00015787 Ry

     iteration # 14     ecut=    42.00 Ry     beta= 0.30
     Davidson diagonalization with overlap
     ethr =  1.80E-08,  avg # of iterations =  3.0

     total cpu time spent up to now is     8934.3 secs

     total energy              =   -1714.33609490 Ry
     Harris-Foulkes estimate   =   -1714.33613027 Ry
     estimated scf accuracy    <       0.00023583 Ry

     iteration # 15     ecut=    42.00 Ry     beta= 0.30
     Davidson diagonalization with overlap
     ethr =  1.80E-08,  avg # of iterations =  3.0

     total cpu time spent up to now is     9415.3 secs

     total energy              =   -1714.33611045 Ry
     Harris-Foulkes estimate   =   -1714.33611825 Ry
     estimated scf accuracy    <       0.00004564 Ry

     iteration # 16     ecut=    42.00 Ry     beta= 0.30
     Davidson diagonalization with overlap
     ethr =  5.20E-09,  avg # of iterations =  3.0

     total cpu time spent up to now is     9915.2 secs

     total energy              =   -1714.33611398 Ry
     Harris-Foulkes estimate   =   -1714.33611733 Ry
     estimated scf accuracy    <       0.00002099 Ry

     iteration # 17     ecut=    42.00 Ry     beta= 0.30
     Davidson diagonalization with overlap
     ethr =  2.39E-09,  avg # of iterations =  3.0

     total cpu time spent up to now is    10404.3 secs

     total energy              =   -1714.33611582 Ry
     Harris-Foulkes estimate   =   -1714.33611700 Ry
     estimated scf accuracy    <       0.00000772 Ry

     iteration # 18     ecut=    42.00 Ry     beta= 0.30
     Davidson diagonalization with overlap
     ethr =  8.79E-10,  avg # of iterations =  3.0

     total cpu time spent up to now is    10886.3 secs

     total energy              =   -1714.33611657 Ry
     Harris-Foulkes estimate   =   -1714.33611684 Ry
     estimated scf accuracy    <       0.00000204 Ry

     iteration # 19     ecut=    42.00 Ry     beta= 0.30
     Davidson diagonalization with overlap
     ethr =  2.32E-10,  avg # of iterations =  3.0

     total cpu time spent up to now is    11385.6 secs

     total energy              =   -1714.33611683 Ry
     Harris-Foulkes estimate   =   -1714.33611694 Ry
     estimated scf accuracy    <       0.00000115 Ry

     iteration # 20     ecut=    42.00 Ry     beta= 0.30
     Davidson diagonalization with overlap
     ethr =  1.32E-10,  avg # of iterations =  3.0

     total cpu time spent up to now is    11826.6 secs

     total energy              =   -1714.33611696 Ry
     Harris-Foulkes estimate   =   -1714.33611699 Ry
     estimated scf accuracy    <       0.00000050 Ry

     iteration # 21     ecut=    42.00 Ry     beta= 0.30
     Davidson diagonalization with overlap
     ethr =  5.65E-11,  avg # of iterations =  3.0

     total cpu time spent up to now is    12283.9 secs

     total energy              =   -1714.33611702 Ry
     Harris-Foulkes estimate   =   -1714.33611704 Ry
     estimated scf accuracy    <       0.00000027 Ry

     iteration # 22     ecut=    42.00 Ry     beta= 0.30
     Davidson diagonalization with overlap
     ethr =  3.10E-11,  avg # of iterations =  3.0

     total cpu time spent up to now is    12729.0 secs

     total energy              =   -1714.33611705 Ry
     Harris-Foulkes estimate   =   -1714.33611706 Ry
     estimated scf accuracy    <       0.00000009 Ry

     iteration # 23     ecut=    42.00 Ry     beta= 0.30
     Davidson diagonalization with overlap
     ethr =  1.07E-11,  avg # of iterations =  3.0

     total cpu time spent up to now is    13176.3 secs

     total energy              =   -1714.33611707 Ry
     Harris-Foulkes estimate   =   -1714.33611707 Ry
     estimated scf accuracy    <       0.00000005 Ry

     iteration # 24     ecut=    42.00 Ry     beta= 0.30
     Davidson diagonalization with overlap
     ethr =  5.42E-12,  avg # of iterations =  3.0

     total cpu time spent up to now is    13658.4 secs

     total energy              =   -1714.33611707 Ry
     Harris-Foulkes estimate   =   -1714.33611708 Ry
     estimated scf accuracy    <       0.00000004 Ry

     iteration # 25     ecut=    42.00 Ry     beta= 0.30
     Davidson diagonalization with overlap
     ethr =  5.01E-12,  avg # of iterations =  3.0

     total cpu time spent up to now is    14117.3 secs

     total energy              =   -1714.33611708 Ry
     Harris-Foulkes estimate   =   -1714.33611708 Ry
     estimated scf accuracy    <       0.00000002 Ry

     iteration # 26     ecut=    42.00 Ry     beta= 0.30
     Davidson diagonalization with overlap
     ethr =  2.52E-12,  avg # of iterations =  3.0

     total cpu time spent up to now is    14485.5 secs

     total energy              =   -1714.33611708 Ry
     Harris-Foulkes estimate   =   -1714.33611708 Ry
     estimated scf accuracy    <       0.00000001 Ry

     iteration # 27     ecut=    42.00 Ry     beta= 0.30
     Davidson diagonalization with overlap
     ethr =  1.29E-12,  avg # of iterations =  3.0

     total cpu time spent up to now is    14859.7 secs

     End of self-consistent calculation

          k = 0.0000 0.0000 0.0000 (136765 PWs)   bands (ev):

    -6.1066  -5.8328  -5.7775  -5.6516  -5.5919  -5.5255  -5.4831  -5.4333
    -5.3633  -5.3021  -5.2038  -5.1718  -5.1545  -5.1135  -5.0740  -5.0569
    -5.0297  -4.9737  -4.9538  -4.7936  -4.7524  -4.7269  -4.6891  -4.6515
    -4.6294  -4.5834  -4.5290  -4.3747  -4.3186  -4.2931  -4.2559  -4.1987
    -4.1444  -4.1095  -4.0988  -4.0184  -3.9817  -3.9734  -3.9633  -3.9035
    -3.8969  -3.8770  -3.8637  -3.8576  -3.8319  -3.8227  -3.7924  -3.7517
    -3.7335  -3.7039  -3.6785  -3.6642  -3.6581  -3.6354  -3.6020  -3.5866
    -3.5679  -3.5322  -3.5064  -3.4749  -3.4604  -3.4377  -3.4118  -3.3971
    -3.3823  -3.3397  -3.3162  -3.2995  -3.2739  -3.2307  -3.2165  -3.1787
    -3.1530  -3.1346  -3.0858  -3.0635  -2.9767  -2.9452  -2.9166  -2.8643
    -2.8026  -2.6551  -2.6291  -2.5622  -2.5341  -2.5110  -2.4764  -2.4564
    -2.4058  -2.3758  -2.3641  -2.2988  -2.2949  -2.2487  -2.2380  -2.2220
    -2.2164  -2.1823  -2.1557  -2.1159  -2.0696  -2.0236  -1.9993  -1.9951
    -1.9440  -1.9190  -1.9054  -1.8786  -1.8428  -1.8235  -1.7863  -1.7689
    -1.6768  -1.6637  -1.6461  -1.5913  -1.5568  -1.5315  -1.5117  -1.4859
    -1.4273  -1.3763  -1.3370  -1.3231  -1.3042  -1.2780  -1.2556  -1.1652
    -1.1450  -1.0999  -1.0934  -1.0749  -1.0352  -0.9884  -0.9092  -0.8789
    -0.8733  -0.8152  -0.7357  -0.6984  -0.6936  -0.6173  -0.6033  -0.5709
    -0.5564  -0.5328  -0.4609  -0.4500  -0.4169  -0.3595  -0.3558  -0.2978
    -0.2770  -0.2589  -0.2166  -0.1800  -0.1432  -0.1113  -0.0783  -0.0600
    -0.0096   0.0181   0.0315   0.0453   0.0774   0.1449   0.1873   0.2049
     0.2189   0.2583   0.2891   0.3280   0.3934   0.3986   0.4228   0.4769
     0.5319   0.5452   0.5749   0.6527   0.6690   0.6913   0.6952   0.7331
     0.7547   0.7862   0.8370   0.8554   0.8826   0.9359   0.9674   0.9871
     1.0059   1.0434   1.0662   1.1225   1.1319   1.1604   1.1771   1.2265
     1.2515   1.2973   1.3175   1.3368   1.3818   1.4181   1.4220   1.4755
     1.5050   1.5581   1.5883   1.6024   1.6425   1.6719   1.6750   1.6968
     1.7507   1.7787   1.8074   1.8092   1.8474   1.8639   1.8893   1.9091
     1.9218   1.9443   1.9615   2.0371   2.0510   2.0721   2.0825   2.0886
     2.1384   2.1469   2.1845   2.1888   2.2009   2.2223   2.2366   2.2800
     2.2973   2.3239   2.3541   2.3753   2.3917   2.3939   2.4403   2.4474
     2.4844   2.5177   2.5375   2.5440   2.5694   2.5875   2.5959   2.6230
     2.6422   2.6681   2.6839   2.7158   2.7245   2.7610   2.7646   2.7935
     2.7955   2.8202   2.8303   2.8390   2.8710   2.8846   2.9057   2.9122
     2.9426   2.9502   2.9839   2.9865   2.9981   3.0147   3.0310   3.0397
     3.0621   3.0664   3.1045   3.1159   3.1564   3.1630   3.1712   3.1938
     3.2024   3.2197   3.2382   3.2531   3.2656   3.2964   3.3038   3.3084
     3.3160   3.3493   3.3692   3.3756   3.3916   3.4026   3.4092   3.4344
     3.4500   3.4691   3.4756   3.4864   3.5115   3.5216   3.5464   3.5523
     3.5575   3.5687   3.5800   3.6107   3.6204   3.6300   3.6386   3.6529
     3.6707   3.6848   3.6939   3.7079   3.7220   3.7360   3.7461   3.7588
     3.7765   3.7958   3.8200   3.8260   3.8451   3.8680   3.8716   3.8921
     3.9021   3.9332   3.9402   3.9455   3.9572   3.9699   3.9806   3.9914
     4.0083   4.0283   4.0447   4.0588   4.0837   4.0983   4.1040   4.1057
     4.1391   4.1594   4.1678   4.1781   4.1954   4.2106   4.2385   4.2444
     4.2575   4.2700   4.2842   4.2985   4.3209   4.3386   4.3525   4.3653
     4.3745   4.3878   4.3949   4.4177   4.4247   4.4403   4.4772   4.4895
     4.4969   4.5192   4.5392   4.5453   4.5646   4.5680   4.6009   4.6231
     4.6312   4.6457   4.6560   4.6802   4.7138   4.7248   4.7339   4.7576
     4.7862   4.7989   4.8096   4.8187   4.8346   4.8390   4.8522   4.8772
     4.9094   4.9315   4.9497   4.9616   5.0108   5.0452   5.0533   5.0717
     5.0806   5.0904   5.1078   5.1343   5.1616   5.1843   5.2011   5.2221
     5.2352   5.2690   5.2900   5.3026   5.3097   5.3282   5.3489   5.3849
     5.4239   5.4666   5.5041   5.5329   5.5733   5.5835   5.6005   5.6336
     5.6705   5.8157   5.8795   5.9140   5.9862   6.1981   6.3247   6.3897
     6.4521   6.5435   6.6168   6.6714   6.7177   6.9138   6.9309   6.9716
     7.0212   7.0507   7.0840   7.1466   7.1510   7.1666   7.1919   7.2063
     7.2468   7.2766   7.2961   7.3303   7.3506   7.3712   7.3847   7.4115
     7.4285   7.4540   7.4733   7.4858   7.5015   7.5147   7.5345   7.5518
     7.5920   7.6416   7.6450   7.6680   7.6803   7.6861   7.7202   7.7240
     7.7478   7.7802   7.7997   7.8066   7.8173   7.8346   7.8506   7.8685
     7.8974   7.9185   7.9416   7.9658   7.9765   7.9890   8.0108   8.0257
     8.0345   8.0434   8.0598   8.0783   8.0859   8.1012   8.1279   8.1424
     8.1596   8.1694   8.1859   8.1933   8.2064   8.2407   8.2453   8.2545
     8.2795   8.3026   8.3170   8.3322   8.3417   8.3712   8.3808   8.3848
     8.4041   8.4291   8.4302   8.4483   8.4513   8.4664   8.4983

     occupation numbers 
     1.0000   1.0000   1.0000   1.0000   1.0000   1.0000   1.0000   1.0000
     1.0000   1.0000   1.0000   1.0000   1.0000   1.0000   1.0000   1.0000
     1.0000   1.0000   1.0000   1.0000   1.0000   1.0000   1.0000   1.0000
     1.0000   1.0000   1.0000   1.0000   1.0000   1.0000   1.0000   1.0000
     1.0000   1.0000   1.0000   1.0000   1.0000   1.0000   1.0000   1.0000
     1.0000   1.0000   1.0000   1.0000   1.0000   1.0000   1.0000   1.0000
     1.0000   1.0000   1.0000   1.0000   1.0000   1.0000   1.0000   1.0000
     1.0000   1.0000   1.0000   1.0000   1.0000   1.0000   1.0000   1.0000
     1.0000   1.0000   1.0000   1.0000   1.0000   1.0000   1.0000   1.0000
     1.0000   1.0000   1.0000   1.0000   1.0000   1.0000   1.0000   1.0000
     1.0000   1.0000   1.0000   1.0000   1.0000   1.0000   1.0000   1.0000
     1.0000   1.0000   1.0000   1.0000   1.0000   1.0000   1.0000   1.0000
     1.0000   1.0000   1.0000   1.0000   1.0000   1.0000   1.0000   1.0000
     1.0000   1.0000   1.0000   1.0000   1.0000   1.0000   1.0000   1.0000
     1.0000   1.0000   1.0000   1.0000   1.0000   1.0000   1.0000   1.0000
     1.0000   1.0000   1.0000   1.0000   1.0000   1.0000   1.0000   1.0000
     1.0000   1.0000   1.0000   1.0000   1.0000   1.0000   1.0000   1.0000
     1.0000   1.0000   1.0000   1.0000   1.0000   1.0000   1.0000   1.0000
     1.0000   1.0000   1.0000   1.0000   1.0000   1.0000   1.0000   1.0000
     1.0000   1.0000   1.0000   1.0000   1.0000   1.0000   1.0000   1.0000
     1.0000   1.0000   1.0000   1.0000   1.0000   1.0000   1.0000   1.0000
     1.0000   1.0000   1.0000   1.0000   1.0000   1.0000   1.0000   1.0000
     1.0000   1.0000   1.0000   1.0000   1.0000   1.0000   1.0000   1.0000
     1.0000   1.0000   1.0000   1.0000   1.0000   1.0000   1.0000   1.0000
     1.0000   1.0000   1.0000   1.0000   1.0000   1.0000   1.0000   1.0000
     1.0000   1.0000   1.0000   1.0000   1.0000   1.0000   1.0000   1.0000
     1.0000   1.0000   1.0000   1.0000   1.0000   1.0000   1.0000   1.0000
     1.0000   1.0000   1.0000   1.0000   1.0000   1.0000   1.0000   1.0000
     1.0000   1.0000   1.0000   1.0000   1.0000   1.0000   1.0000   1.0000
     1.0000   1.0000   1.0000   1.0000   1.0000   1.0000   1.0000   1.0000
     1.0000   1.0000   1.0000   1.0000   1.0000   1.0000   1.0000   1.0000
     1.0000   1.0000   1.0000   1.0000   1.0000   1.0000   1.0000   1.0000
     1.0000   1.0000   1.0000   1.0000   1.0000   1.0000   1.0000   1.0000
     1.0000   1.0000   1.0000   1.0000   1.0000   1.0000   1.0000   1.0000
     1.0000   1.0000   1.0000   1.0000   1.0000   1.0000   1.0000   1.0000
     1.0000   1.0000   1.0000   1.0000   1.0000   1.0000   1.0000   1.0000
     1.0000   1.0000   1.0000   1.0000   1.0000   1.0000   1.0000   1.0000
     1.0000   1.0000   1.0000   1.0000   1.0000   1.0000   1.0000   1.0000
     1.0000   1.0000   1.0000   1.0000   1.0000   1.0000   1.0000   1.0000
     1.0000   1.0000   1.0000   1.0001   1.0001   1.0001   1.0001   1.0001
     1.0001   1.0001   1.0001   1.0001   1.0001   1.0002   1.0002   1.0002
     1.0002   1.0002   1.0003   1.0003   1.0004   1.0004   1.0004   1.0005
     1.0005   1.0007   1.0007   1.0007   1.0008   1.0009   1.0009   1.0010
     1.0011   1.0013   1.0015   1.0016   1.0019   1.0020   1.0021   1.0021
     1.0026   1.0030   1.0031   1.0033   1.0037   1.0040   1.0047   1.0049
     1.0052   1.0056   1.0061   1.0066   1.0074   1.0081   1.0087   1.0093
     1.0097   1.0104   1.0107   1.0120   1.0124   1.0133   1.0158   1.0167
     1.0172   1.0190   1.0206   1.0212   1.0229   1.0232   1.0264   1.0287
     1.0296   1.0312   1.0324   1.0352   1.0393   1.0407   1.0419   1.0450
     1.0489   1.0506   1.0521   1.0534   1.0556   1.0562   1.0580   1.0614
     1.0657   1.0686   1.0708   1.0722   1.0774   1.0802   1.0808   1.0818
     1.0823   1.0826   1.0831   1.0833   1.0827   1.0815   1.0802   1.0780
     1.0763   1.0708   1.0664   1.0634   1.0616   1.0565   1.0501   1.0370
     1.0199   0.9978   0.9754   0.9563   0.9268   0.9189   0.9053   0.8774
     0.8441   0.6967   0.6267   0.5885   0.5090   0.2982   0.1998   0.1587
     0.1253   0.0862   0.0623   0.0482   0.0385   0.0134   0.0121   0.0095
     0.0070   0.0058   0.0047   0.0031   0.0030   0.0027   0.0023   0.0020
     0.0015   0.0012   0.0011   0.0008   0.0007   0.0006   0.0005   0.0004
     0.0004   0.0003   0.0003   0.0002   0.0002   0.0002   0.0002   0.0001
     0.0001   0.0001   0.0001   0.0001   0.0000   0.0000   0.0000   0.0000
     0.0000   0.0000   0.0000   0.0000   0.0000   0.0000   0.0000   0.0000
     0.0000   0.0000   0.0000   0.0000   0.0000   0.0000   0.0000   0.0000
     0.0000   0.0000   0.0000   0.0000   0.0000   0.0000   0.0000   0.0000
     0.0000   0.0000   0.0000   0.0000   0.0000   0.0000   0.0000   0.0000
     0.0000   0.0000   0.0000   0.0000   0.0000   0.0000   0.0000   0.0000
     0.0000   0.0000   0.0000   0.0000   0.0000   0.0000   0.0000

          k = 0.0000 0.0000-0.5026 (136844 PWs)   bands (ev):

    -6.0146  -5.9997  -5.7240  -5.6201  -5.5524  -5.5433  -5.5363  -5.4490
    -5.4200  -5.3927  -5.1713  -5.1483  -5.1001  -5.0556  -5.0374  -5.0048
    -4.9982  -4.9747  -4.9311  -4.8684  -4.7362  -4.6560  -4.6477  -4.5883
    -4.5229  -4.5057  -4.4946  -4.4244  -4.3875  -4.3095  -4.2719  -4.2224
    -4.1965  -4.1687  -4.1464  -4.1091  -4.0896  -4.0653  -4.0513  -4.0235
    -3.9907  -3.9616  -3.9384  -3.9144  -3.8755  -3.8645  -3.8020  -3.7913
    -3.7760  -3.7496  -3.7165  -3.6995  -3.6487  -3.5966  -3.5844  -3.5497
    -3.5286  -3.4895  -3.4767  -3.4493  -3.4278  -3.3836  -3.3365  -3.2957
    -3.2721  -3.2621  -3.2176  -3.1579  -3.1508  -3.1112  -3.0775  -3.0459
    -3.0405  -2.9994  -2.9648  -2.9568  -2.9228  -2.8903  -2.8390  -2.7923
    -2.7623  -2.7442  -2.7399  -2.7024  -2.6858  -2.6084  -2.5846  -2.5476
    -2.5139  -2.4712  -2.4476  -2.4206  -2.4161  -2.3696  -2.2965  -2.2885
    -2.2507  -2.1899  -2.1611  -2.1281  -2.0975  -2.0683  -2.0294  -1.9903
    -1.9778  -1.9320  -1.8886  -1.8638  -1.8345  -1.7629  -1.7186  -1.7095
    -1.6745  -1.6321  -1.6225  -1.5905  -1.5486  -1.5215  -1.4622  -1.4318
    -1.4097  -1.3663  -1.3505  -1.2951  -1.2767  -1.2305  -1.2241  -1.2112
    -1.1489  -1.1096  -1.0581  -1.0407  -1.0118  -0.9860  -0.9824  -0.9234
    -0.9026  -0.8062  -0.7870  -0.7327  -0.7077  -0.6571  -0.6149  -0.6050
    -0.5302  -0.4883  -0.4754  -0.4680  -0.4139  -0.3693  -0.3408  -0.2943
    -0.2669  -0.2354  -0.2076  -0.1333  -0.1242  -0.0930  -0.0502  -0.0288
    -0.0049   0.0411   0.0531   0.0958   0.1105   0.1591   0.1794   0.2162
     0.2348   0.2700   0.2927   0.3516   0.3848   0.3942   0.4537   0.4834
     0.4998   0.5194   0.5890   0.6007   0.6337   0.6889   0.7043   0.7276
     0.7554   0.8032   0.8402   0.8525   0.8872   0.9066   0.9463   0.9724
     1.0304   1.0928   1.0975   1.1216   1.1495   1.1879   1.2344   1.2504
     1.2603   1.2815   1.3201   1.3312   1.3711   1.4210   1.4608   1.4820
     1.4906   1.5385   1.5781   1.6201   1.6417   1.6738   1.6837   1.6941
     1.7105   1.7540   1.7791   1.8210   1.8361   1.8729   1.8781   1.9151
     1.9423   1.9660   1.9886   2.0207   2.0442   2.0858   2.0885   2.1190
     2.1533   2.1560   2.1812   2.2061   2.2203   2.2317   2.2838   2.2874
     2.3032   2.3357   2.3547   2.3782   2.3994   2.4048   2.4197   2.4462
     2.4537   2.4735   2.5084   2.5152   2.5291   2.5574   2.5847   2.6121
     2.6350   2.6455   2.6533   2.6775   2.7010   2.7155   2.7301   2.7437
     2.7512   2.7817   2.7911   2.8217   2.8408   2.8531   2.8572   2.8809
     2.9101   2.9162   2.9302   2.9527   2.9856   2.9919   3.0105   3.0307
     3.0643   3.0907   3.0976   3.1090   3.1216   3.1354   3.1432   3.1636
     3.1820   3.2044   3.2119   3.2287   3.2508   3.2562   3.2883   3.2995
     3.3142   3.3191   3.3310   3.3580   3.3740   3.3901   3.4097   3.4302
     3.4604   3.4663   3.4696   3.4860   3.4961   3.5072   3.5245   3.5328
     3.5575   3.5653   3.5785   3.6177   3.6238   3.6451   3.6539   3.6678
     3.6815   3.7061   3.7223   3.7251   3.7353   3.7449   3.7565   3.7816
     3.7994   3.8047   3.8111   3.8510   3.8639   3.8762   3.8844   3.8990
     3.9147   3.9210   3.9237   3.9639   3.9663   3.9773   4.0083   4.0287
     4.0347   4.0574   4.0800   4.1066   4.1223   4.1258   4.1294   4.1515
     4.1664   4.1894   4.2158   4.2169   4.2284   4.2437   4.2604   4.2740
     4.2847   4.2915   4.3236   4.3288   4.3464   4.3556   4.3835   4.4033
     4.4105   4.4164   4.4383   4.4663   4.4883   4.4931   4.5024   4.5134
     4.5306   4.5332   4.5489   4.5863   4.5974   4.6184   4.6274   4.6400
     4.6413   4.6508   4.6631   4.6870   4.6978   4.7067   4.7325   4.7365
     4.7718   4.7931   4.8278   4.8356   4.8438   4.8494   4.8650   4.8978
     4.9128   4.9197   4.9429   4.9738   4.9885   4.9917   5.0262   5.0435
     5.0655   5.0973   5.1088   5.1180   5.1384   5.1530   5.1607   5.1829
     5.2105   5.2285   5.2624   5.2869   5.3131   5.3262   5.3716   5.3852
     5.4064   5.4510   5.4949   5.5231   5.5436   5.5931   5.6157   5.7089
     5.7272   5.7961   5.8514   5.8973   5.9772   6.1502   6.2929   6.3829
     6.4776   6.5280   6.6009   6.6372   6.7437   6.8597   6.8896   6.9840
     6.9991   7.0255   7.1131   7.1302   7.1513   7.1740   7.1824   7.2085
     7.2276   7.2611   7.2907   7.3086   7.3219   7.3443   7.3758   7.4005
     7.4398   7.4767   7.4972   7.5129   7.5213   7.5494   7.5613   7.5790
     7.6108   7.6332   7.6394   7.6466   7.6681   7.7042   7.7071   7.7341
     7.7388   7.7610   7.7804   7.7935   7.8238   7.8366   7.8385   7.8658
     7.8686   7.8934   7.9107   7.9265   7.9538   7.9604   7.9797   7.9955
     8.0045   8.0245   8.0339   8.0401   8.0777   8.1161   8.1230   8.1337
     8.1441   8.1633   8.1636   8.1892   8.1965   8.2282   8.2328   8.2609
     8.2654   8.2790   8.2927   8.3053   8.3068   8.3360   8.3642   8.3752
     8.3917   8.4052   8.4198   8.4308   8.4671   8.4897   8.5021

     occupation numbers 
     1.0000   1.0000   1.0000   1.0000   1.0000   1.0000   1.0000   1.0000
     1.0000   1.0000   1.0000   1.0000   1.0000   1.0000   1.0000   1.0000
     1.0000   1.0000   1.0000   1.0000   1.0000   1.0000   1.0000   1.0000
     1.0000   1.0000   1.0000   1.0000   1.0000   1.0000   1.0000   1.0000
     1.0000   1.0000   1.0000   1.0000   1.0000   1.0000   1.0000   1.0000
     1.0000   1.0000   1.0000   1.0000   1.0000   1.0000   1.0000   1.0000
     1.0000   1.0000   1.0000   1.0000   1.0000   1.0000   1.0000   1.0000
     1.0000   1.0000   1.0000   1.0000   1.0000   1.0000   1.0000   1.0000
     1.0000   1.0000   1.0000   1.0000   1.0000   1.0000   1.0000   1.0000
     1.0000   1.0000   1.0000   1.0000   1.0000   1.0000   1.0000   1.0000
     1.0000   1.0000   1.0000   1.0000   1.0000   1.0000   1.0000   1.0000
     1.0000   1.0000   1.0000   1.0000   1.0000   1.0000   1.0000   1.0000
     1.0000   1.0000   1.0000   1.0000   1.0000   1.0000   1.0000   1.0000
     1.0000   1.0000   1.0000   1.0000   1.0000   1.0000   1.0000   1.0000
     1.0000   1.0000   1.0000   1.0000   1.0000   1.0000   1.0000   1.0000
     1.0000   1.0000   1.0000   1.0000   1.0000   1.0000   1.0000   1.0000
     1.0000   1.0000   1.0000   1.0000   1.0000   1.0000   1.0000   1.0000
     1.0000   1.0000   1.0000   1.0000   1.0000   1.0000   1.0000   1.0000
     1.0000   1.0000   1.0000   1.0000   1.0000   1.0000   1.0000   1.0000
     1.0000   1.0000   1.0000   1.0000   1.0000   1.0000   1.0000   1.0000
     1.0000   1.0000   1.0000   1.0000   1.0000   1.0000   1.0000   1.0000
     1.0000   1.0000   1.0000   1.0000   1.0000   1.0000   1.0000   1.0000
     1.0000   1.0000   1.0000   1.0000   1.0000   1.0000   1.0000   1.0000
     1.0000   1.0000   1.0000   1.0000   1.0000   1.0000   1.0000   1.0000
     1.0000   1.0000   1.0000   1.0000   1.0000   1.0000   1.0000   1.0000
     1.0000   1.0000   1.0000   1.0000   1.0000   1.0000   1.0000   1.0000
     1.0000   1.0000   1.0000   1.0000   1.0000   1.0000   1.0000   1.0000
     1.0000   1.0000   1.0000   1.0000   1.0000   1.0000   1.0000   1.0000
     1.0000   1.0000   1.0000   1.0000   1.0000   1.0000   1.0000   1.0000
     1.0000   1.0000   1.0000   1.0000   1.0000   1.0000   1.0000   1.0000
     1.0000   1.0000   1.0000   1.0000   1.0000   1.0000   1.0000   1.0000
     1.0000   1.0000   1.0000   1.0000   1.0000   1.0000   1.0000   1.0000
     1.0000   1.0000   1.0000   1.0000   1.0000   1.0000   1.0000   1.0000
     1.0000   1.0000   1.0000   1.0000   1.0000   1.0000   1.0000   1.0000
     1.0000   1.0000   1.0000   1.0000   1.0000   1.0000   1.0000   1.0000
     1.0000   1.0000   1.0000   1.0000   1.0000   1.0000   1.0000   1.0000
     1.0000   1.0000   1.0000   1.0000   1.0000   1.0000   1.0000   1.0000
     1.0000   1.0000   1.0000   1.0000   1.0000   1.0000   1.0000   1.0000
     1.0000   1.0000   1.0000   1.0000   1.0000   1.0000   1.0000   1.0000
     1.0000   1.0000   1.0000   1.0001   1.0001   1.0001   1.0001   1.0001
     1.0001   1.0001   1.0001   1.0001   1.0002   1.0002   1.0002   1.0002
     1.0003   1.0003   1.0003   1.0004   1.0004   1.0005   1.0005   1.0005
     1.0006   1.0006   1.0006   1.0008   1.0009   1.0009   1.0011   1.0013
     1.0014   1.0016   1.0018   1.0022   1.0024   1.0024   1.0025   1.0028
     1.0031   1.0036   1.0041   1.0042   1.0045   1.0049   1.0053   1.0057
     1.0061   1.0063   1.0075   1.0077   1.0084   1.0088   1.0102   1.0112
     1.0116   1.0119   1.0132   1.0150   1.0166   1.0169   1.0176   1.0185
     1.0199   1.0201   1.0215   1.0250   1.0261   1.0282   1.0292   1.0306
     1.0307   1.0318   1.0332   1.0360   1.0373   1.0384   1.0417   1.0423
     1.0469   1.0498   1.0546   1.0557   1.0568   1.0576   1.0598   1.0642
     1.0662   1.0671   1.0700   1.0736   1.0752   1.0755   1.0787   1.0801
     1.0815   1.0829   1.0831   1.0833   1.0832   1.0830   1.0827   1.0816
     1.0793   1.0772   1.0720   1.0671   1.0607   1.0571   1.0421   1.0368
     1.0279   1.0063   0.9811   0.9630   0.9488   0.9113   0.8927   0.8074
     0.7893   0.7177   0.6576   0.6070   0.5188   0.3414   0.2222   0.1628
     0.1133   0.0921   0.0670   0.0567   0.0337   0.0182   0.0153   0.0088
     0.0080   0.0068   0.0039   0.0035   0.0030   0.0026   0.0024   0.0020
     0.0018   0.0014   0.0011   0.0010   0.0009   0.0007   0.0006   0.0005
     0.0004   0.0003   0.0002   0.0002   0.0002   0.0001   0.0001   0.0001
     0.0001   0.0001   0.0001   0.0001   0.0001   0.0000   0.0000   0.0000
     0.0000   0.0000   0.0000   0.0000   0.0000   0.0000   0.0000   0.0000
     0.0000   0.0000   0.0000   0.0000   0.0000   0.0000   0.0000   0.0000
     0.0000   0.0000   0.0000   0.0000   0.0000   0.0000   0.0000   0.0000
     0.0000   0.0000   0.0000   0.0000   0.0000   0.0000   0.0000   0.0000
     0.0000   0.0000   0.0000   0.0000   0.0000   0.0000   0.0000   0.0000
     0.0000   0.0000   0.0000   0.0000   0.0000   0.0000   0.0000

          k = 0.0000-0.5022 0.0003 (136848 PWs)   bands (ev):

    -6.0230  -5.9867  -5.7385  -5.6315  -5.5603  -5.5469  -5.4971  -5.4500
    -5.4301  -5.3418  -5.2290  -5.1621  -5.1355  -5.0645  -5.0447  -5.0171
    -4.9782  -4.9295  -4.9002  -4.8437  -4.7095  -4.6930  -4.5935  -4.5425
    -4.5384  -4.5121  -4.4709  -4.4519  -4.4303  -4.3564  -4.2946  -4.2600
    -4.2317  -4.1983  -4.1677  -4.1310  -4.0971  -4.0624  -4.0368  -4.0180
    -4.0024  -3.9516  -3.9376  -3.9009  -3.8872  -3.8415  -3.8063  -3.7470
    -3.7296  -3.7052  -3.6810  -3.6566  -3.6275  -3.5963  -3.5814  -3.5491
    -3.5327  -3.5146  -3.4626  -3.4513  -3.3995  -3.3864  -3.3534  -3.3278
    -3.3048  -3.2580  -3.2174  -3.1919  -3.1734  -3.1053  -3.0695  -3.0438
    -3.0087  -2.9900  -2.9521  -2.9355  -2.9202  -2.8836  -2.8699  -2.8011
    -2.7811  -2.7514  -2.7368  -2.6913  -2.6506  -2.5942  -2.5603  -2.5360
    -2.5132  -2.4952  -2.4412  -2.4383  -2.4183  -2.3879  -2.3270  -2.2880
    -2.2561  -2.2234  -2.1948  -2.1595  -2.1407  -2.0645  -2.0242  -1.9968
    -1.9685  -1.9518  -1.8956  -1.8659  -1.8273  -1.7932  -1.7734  -1.7299
    -1.6989  -1.6659  -1.6205  -1.5665  -1.5453  -1.5242  -1.4962  -1.4379
    -1.3868  -1.3407  -1.3131  -1.2806  -1.2710  -1.1934  -1.1607  -1.1103
    -1.0998  -1.0774  -1.0537  -1.0028  -0.9947  -0.9574  -0.9325  -0.8885
    -0.8237  -0.8115  -0.7832  -0.7770  -0.7195  -0.7001  -0.6326  -0.5950
    -0.5388  -0.5009  -0.4640  -0.4412  -0.3949  -0.3651  -0.3011  -0.2697
    -0.2556  -0.2159  -0.1989  -0.1644  -0.1478  -0.1140  -0.0996  -0.0649
    -0.0428  -0.0103   0.0233   0.0538   0.0778   0.1017   0.1502   0.1726
     0.2033   0.2185   0.2254   0.3160   0.3671   0.4024   0.4542   0.4770
     0.5189   0.5531   0.6163   0.6288   0.6660   0.6871   0.7043   0.7219
     0.7416   0.8137   0.8367   0.8720   0.9025   0.9455   0.9693   0.9771
     1.0090   1.0353   1.1044   1.1348   1.1563   1.1583   1.2064   1.2143
     1.2658   1.2702   1.3087   1.3432   1.3801   1.4206   1.4518   1.4944
     1.5298   1.5579   1.6089   1.6320   1.6444   1.6646   1.6705   1.7223
     1.7780   1.7827   1.8033   1.8100   1.8571   1.8782   1.9050   1.9239
     1.9286   1.9611   1.9999   2.0291   2.0326   2.0589   2.0891   2.1104
     2.1498   2.1581   2.1989   2.2133   2.2356   2.2572   2.2610   2.3150
     2.3235   2.3456   2.3823   2.3963   2.4092   2.4268   2.4288   2.4481
     2.4946   2.5039   2.5265   2.5393   2.5542   2.5860   2.6067   2.6184
     2.6366   2.6471   2.6626   2.6769   2.7157   2.7259   2.7327   2.7435
     2.7617   2.7802   2.7878   2.8041   2.8233   2.8519   2.8584   2.8820
     2.8991   2.9102   2.9288   2.9520   2.9539   2.9770   2.9973   3.0273
     3.0325   3.0396   3.0658   3.0733   3.0998   3.1243   3.1356   3.1484
     3.1559   3.1816   3.1931   3.2164   3.2543   3.2648   3.2805   3.2916
     3.3113   3.3303   3.3362   3.3576   3.3718   3.3784   3.4006   3.4289
     3.4393   3.4579   3.4648   3.4736   3.5011   3.5121   3.5196   3.5432
     3.5537   3.5644   3.5660   3.5833   3.5972   3.6051   3.6274   3.6385
     3.6711   3.6916   3.6944   3.7045   3.7297   3.7568   3.7641   3.7817
     3.8013   3.8206   3.8345   3.8584   3.8681   3.8807   3.9007   3.9051
     3.9335   3.9359   3.9501   3.9860   3.9983   4.0094   4.0205   4.0249
     4.0473   4.0596   4.0638   4.0751   4.1047   4.1268   4.1284   4.1568
     4.1758   4.1903   4.2057   4.2142   4.2174   4.2490   4.2525   4.2660
     4.2873   4.3002   4.3146   4.3264   4.3375   4.3550   4.3572   4.3743
     4.3893   4.4071   4.4122   4.4391   4.4550   4.4778   4.4972   4.5088
     4.5261   4.5589   4.5719   4.5874   4.5997   4.6037   4.6162   4.6234
     4.6376   4.6653   4.6780   4.6969   4.7086   4.7137   4.7382   4.7554
     4.7649   4.7834   4.8027   4.8234   4.8387   4.8578   4.8778   4.8954
     4.9053   4.9224   4.9471   4.9811   4.9905   4.9986   5.0509   5.0595
     5.0764   5.0918   5.1054   5.1226   5.1529   5.1899   5.2035   5.2316
     5.2418   5.2689   5.2912   5.3065   5.3366   5.3406   5.3863   5.3907
     5.4218   5.4480   5.4821   5.4925   5.5245   5.5428   5.6023   5.6340
     5.6943   5.8152   5.8375   5.9179   5.9545   6.1741   6.3011   6.4590
     6.4639   6.5531   6.7132   6.7571   6.8157   6.8759   6.9325   6.9560
     6.9682   7.0078   7.0549   7.1215   7.1510   7.1849   7.2078   7.2230
     7.2448   7.2718   7.2895   7.3269   7.3441   7.3661   7.3894   7.3943
     7.4136   7.4250   7.4417   7.4786   7.5103   7.5212   7.5314   7.5768
     7.5906   7.6043   7.6088   7.6284   7.6602   7.6883   7.7000   7.7077
     7.7207   7.7492   7.7644   7.7910   7.7982   7.8089   7.8361   7.8473
     7.8675   7.8864   7.8900   7.9089   7.9396   7.9603   7.9652   7.9813
     7.9992   8.0175   8.0309   8.0414   8.0677   8.0850   8.0952   8.1298
     8.1443   8.1623   8.1770   8.1899   8.2081   8.2142   8.2335   8.2460
     8.2621   8.2803   8.2946   8.3137   8.3176   8.3383   8.3552   8.3809
     8.3941   8.4059   8.4253   8.4327   8.4437   8.4625   8.4846

     occupation numbers 
     1.0000   1.0000   1.0000   1.0000   1.0000   1.0000   1.0000   1.0000
     1.0000   1.0000   1.0000   1.0000   1.0000   1.0000   1.0000   1.0000
     1.0000   1.0000   1.0000   1.0000   1.0000   1.0000   1.0000   1.0000
     1.0000   1.0000   1.0000   1.0000   1.0000   1.0000   1.0000   1.0000
     1.0000   1.0000   1.0000   1.0000   1.0000   1.0000   1.0000   1.0000
     1.0000   1.0000   1.0000   1.0000   1.0000   1.0000   1.0000   1.0000
     1.0000   1.0000   1.0000   1.0000   1.0000   1.0000   1.0000   1.0000
     1.0000   1.0000   1.0000   1.0000   1.0000   1.0000   1.0000   1.0000
     1.0000   1.0000   1.0000   1.0000   1.0000   1.0000   1.0000   1.0000
     1.0000   1.0000   1.0000   1.0000   1.0000   1.0000   1.0000   1.0000
     1.0000   1.0000   1.0000   1.0000   1.0000   1.0000   1.0000   1.0000
     1.0000   1.0000   1.0000   1.0000   1.0000   1.0000   1.0000   1.0000
     1.0000   1.0000   1.0000   1.0000   1.0000   1.0000   1.0000   1.0000
     1.0000   1.0000   1.0000   1.0000   1.0000   1.0000   1.0000   1.0000
     1.0000   1.0000   1.0000   1.0000   1.0000   1.0000   1.0000   1.0000
     1.0000   1.0000   1.0000   1.0000   1.0000   1.0000   1.0000   1.0000
     1.0000   1.0000   1.0000   1.0000   1.0000   1.0000   1.0000   1.0000
     1.0000   1.0000   1.0000   1.0000   1.0000   1.0000   1.0000   1.0000
     1.0000   1.0000   1.0000   1.0000   1.0000   1.0000   1.0000   1.0000
     1.0000   1.0000   1.0000   1.0000   1.0000   1.0000   1.0000   1.0000
     1.0000   1.0000   1.0000   1.0000   1.0000   1.0000   1.0000   1.0000
     1.0000   1.0000   1.0000   1.0000   1.0000   1.0000   1.0000   1.0000
     1.0000   1.0000   1.0000   1.0000   1.0000   1.0000   1.0000   1.0000
     1.0000   1.0000   1.0000   1.0000   1.0000   1.0000   1.0000   1.0000
     1.0000   1.0000   1.0000   1.0000   1.0000   1.0000   1.0000   1.0000
     1.0000   1.0000   1.0000   1.0000   1.0000   1.0000   1.0000   1.0000
     1.0000   1.0000   1.0000   1.0000   1.0000   1.0000   1.0000   1.0000
     1.0000   1.0000   1.0000   1.0000   1.0000   1.0000   1.0000   1.0000
     1.0000   1.0000   1.0000   1.0000   1.0000   1.0000   1.0000   1.0000
     1.0000   1.0000   1.0000   1.0000   1.0000   1.0000   1.0000   1.0000
     1.0000   1.0000   1.0000   1.0000   1.0000   1.0000   1.0000   1.0000
     1.0000   1.0000   1.0000   1.0000   1.0000   1.0000   1.0000   1.0000
     1.0000   1.0000   1.0000   1.0000   1.0000   1.0000   1.0000   1.0000
     1.0000   1.0000   1.0000   1.0000   1.0000   1.0000   1.0000   1.0000
     1.0000   1.0000   1.0000   1.0000   1.0000   1.0000   1.0000   1.0000
     1.0000   1.0000   1.0000   1.0000   1.0000   1.0000   1.0000   1.0000
     1.0000   1.0000   1.0000   1.0000   1.0000   1.0000   1.0000   1.0000
[...]
     atom   38 type  1   force =    -0.00000337   -0.00000387   -0.00000251
     atom   39 type  1   force =     0.00000349   -0.00000478    0.00000735
     atom   40 type  1   force =    -0.00000212   -0.00000399    0.00000462
     atom   41 type  1   force =    -0.00000931   -0.00000256   -0.00000272
     atom   42 type  1   force =    -0.00000138    0.00000217    0.00000237
     atom   43 type  1   force =    -0.00000709    0.00000206    0.00000781
     atom   44 type  1   force =     0.00000628    0.00000012   -0.00000447
     atom   45 type  1   force =     0.00000242   -0.00000267    0.00000920
     atom   46 type  1   force =    -0.00000032   -0.00000107   -0.00000089
     atom   47 type  1   force =     0.00000133    0.00000554    0.00000468
     atom   48 type  1   force =     0.00000234   -0.00000304   -0.00000518
     atom   49 type  1   force =     0.00000175    0.00000315    0.00000435
     atom   50 type  1   force =     0.00000265    0.00000025   -0.00000321
     atom   51 type  1   force =    -0.00000633   -0.00000330    0.00000229
     atom   52 type  1   force =     0.00000709    0.00000455    0.00000280
     atom   53 type  1   force =     0.00000423   -0.00000282   -0.00000595
     atom   54 type  1   force =     0.00000129   -0.00000263    0.00000346
     atom   55 type  1   force =    -0.00000351    0.00000266   -0.00000368
     atom   56 type  1   force =     0.00000821    0.00000388   -0.00001000
     atom   57 type  1   force =    -0.00000253   -0.00000271   -0.00000621
     atom   58 type  1   force =     0.00000038    0.00000594    0.00000410
     atom   59 type  1   force =    -0.00000672   -0.00000143   -0.00000618
     atom   60 type  1   force =     0.00000699    0.00000140    0.00000133
     atom   61 type  1   force =     0.00000129    0.00000544    0.00000420
     atom   62 type  1   force =    -0.00000006    0.00000178   -0.00000130
     atom   63 type  1   force =     0.00000063    0.00000270    0.00000038
     atom   64 type  1   force =    -0.00000149   -0.00000448    0.00000222
     atom   65 type  1   force =     0.00000674    0.00000114   -0.00000032
     atom   66 type  1   force =     0.00000587   -0.00000059    0.00000905
     atom   67 type  1   force =    -0.00000657   -0.00000458   -0.00000408
     atom   68 type  1   force =     0.00000120   -0.00000011   -0.00000158
     atom   69 type  1   force =     0.00000004   -0.00000108   -0.00000073
     atom   70 type  1   force =    -0.00000258    0.00000336    0.00000297
     atom   71 type  1   force =     0.00000200   -0.00000067    0.00000761
     atom   72 type  1   force =    -0.00000453   -0.00000350   -0.00000268
     atom   73 type  1   force =     0.00000207   -0.00000435   -0.00000352
     atom   74 type  1   force =     0.00000439   -0.00000149   -0.00000584
     atom   75 type  1   force =     0.00000423    0.00000614    0.00000273
     atom   76 type  1   force =     0.00000148    0.00000154   -0.00000472
     atom   77 type  1   force =     0.00000659    0.00000575   -0.00000602
     atom   78 type  1   force =     0.00000307   -0.00000493    0.00000429
     atom   79 type  1   force =     0.00000460   -0.00000032   -0.00000576
     atom   80 type  1   force =    -0.00000414   -0.00000321   -0.00000175
     atom   81 type  1   force =     0.00000429    0.00000512   -0.00000572
     atom   82 type  1   force =    -0.00000542    0.00000417    0.00000201
     atom   83 type  1   force =    -0.00000324    0.00000335    0.00000280
     atom   84 type  1   force =     0.00000065   -0.00000102   -0.00000765
     atom   85 type  1   force =    -0.00000250   -0.00000460   -0.00000038
     atom   86 type  1   force =    -0.00000552   -0.00000044   -0.00000395
     atom   87 type  1   force =     0.00000035   -0.00000582    0.00000382
     atom   88 type  1   force =     0.00000529   -0.00000451   -0.00000012
     atom   89 type  1   force =     0.00000181   -0.00000257    0.00000280
     atom   90 type  1   force =    -0.00000219   -0.00000051    0.00000209
     atom   91 type  1   force =    -0.00000057    0.00000490    0.00000861
     atom   92 type  1   force =     0.00000178   -0.00000607    0.00000744
     atom   93 type  1   force =     0.00000857   -0.00000067    0.00000201
     atom   94 type  1   force =     0.00000736   -0.00000343    0.00000066
     atom   95 type  1   force =     0.00000288    0.00000469    0.00000841
     atom   96 type  1   force =    -0.00000603    0.00000254    0.00000275
     atom   97 type  1   force =     0.00000189   -0.00000351   -0.00000814
     atom   98 type  1   force =     0.00000230   -0.00000290   -0.00000066
     atom   99 type  1   force =     0.00000127   -0.00000311   -0.00000293
     atom  100 type  1   force =     0.00000469   -0.00000198   -0.00000452
     atom  101 type  1   force =    -0.00000022    0.00000124    0.00000925
     atom  102 type  1   force =     0.00000261   -0.00000482    0.00000610
     atom  103 type  1   force =     0.00000358    0.00000264   -0.00000409
     atom  104 type  1   force =    -0.00000222   -0.00000191    0.00000165
     atom  105 type  1   force =    -0.00000146    0.00000037    0.00000268
     atom  106 type  1   force =    -0.00000299    0.00000259    0.00000068
     atom  107 type  1   force =     0.00000722   -0.00000170   -0.00000346
     atom  108 type  1   force =     0.00000788   -0.00000093   -0.00000650
     atom  109 type  1   force =    -0.00000113   -0.00000409    0.00000083
     atom  110 type  1   force =     0.00000196    0.00000406    0.00000970
     atom  111 type  1   force =    -0.00000362    0.00000272    0.00000066
     atom  112 type  1   force =     0.00000061    0.00000055   -0.00000073
     atom  113 type  1   force =     0.00000062    0.00000483    0.00000068
     atom  114 type  1   force =    -0.00000742    0.00000271    0.00000005
     atom  115 type  1   force =    -0.00000287   -0.00000343   -0.00000009
     atom  116 type  1   force =     0.00000568   -0.00000556    0.00000550
     atom  117 type  1   force =     0.00000413    0.00000253    0.00000113
     atom  118 type  1   force =     0.00000306   -0.00000412    0.00000480
     atom  119 type  1   force =    -0.00000331   -0.00000135   -0.00000452
     atom  120 type  1   force =     0.00000010   -0.00000214   -0.00000133
     atom  121 type  1   force =    -0.00000315    0.00000314    0.00000429
     atom  122 type  1   force =     0.00000739   -0.00000025   -0.00000286
     atom  123 type  1   force =     0.00000130    0.00000162   -0.00000185
     atom  124 type  1   force =     0.00000514    0.00000385   -0.00000067
     atom  125 type  1   force =    -0.00000461    0.00000135   -0.00000268
     atom  126 type  1   force =    -0.00000513   -0.00000464    0.00000182
     atom  127 type  1   force =    -0.00000385    0.00000315    0.00000426
     atom  128 type  1   force =    -0.00000167    0.00000107    0.00000810
     atom  129 type  1   force =     0.00000280   -0.00000249   -0.00000693
     atom  130 type  1   force =    -0.00000781    0.00000312   -0.00000535
     atom  131 type  1   force =     0.00000202    0.00000392    0.00000014
     atom  132 type  1   force =     0.00000179   -0.00000025    0.00000036
     atom  133 type  1   force =     0.00000149    0.00000551   -0.00000162
     atom  134 type  1   force =    -0.00000205   -0.00000252   -0.00000356
     atom  135 type  1   force =     0.00000933   -0.00000091   -0.00000569
     atom  136 type  1   force =     0.00000192    0.00000565    0.00000584
     atom  137 type  1   force =     0.00000269    0.00000391    0.00000811
     atom  138 type  1   force =     0.00000540    0.00000361    0.00000782
     atom  139 type  1   force =    -0.00000251    0.00000385    0.00000667
     atom  140 type  1   force =    -0.00000278    0.00000052   -0.00000027
     atom  141 type  1   force =    -0.00000105    0.00000171   -0.00000147
     atom  142 type  1   force =    -0.00000507    0.00000279    0.00000592
     atom  143 type  1   force =     0.00000449   -0.00000027   -0.00000204
     atom  144 type  1   force =     0.00000307    0.00000551    0.00000356
     atom  145 type  1   force =     0.00000155    0.00000005    0.00000144
     atom  146 type  1   force =     0.00000156    0.00000476    0.00000540
     atom  147 type  1   force =    -0.00000364    0.00000099    0.00000747
     atom  148 type  1   force =    -0.00000326    0.00000280   -0.00000221
     atom  149 type  1   force =     0.00000592   -0.00000150   -0.00000405
     atom  150 type  1   force =    -0.00000360    0.00000542   -0.00000496
     atom  151 type  1   force =    -0.00000018   -0.00000073    0.00000571
     atom  152 type  1   force =     0.00000705   -0.00000011   -0.00000667
     atom  153 type  1   force =     0.00000015    0.00000048    0.00000369
     atom  154 type  1   force =     0.00000440    0.00000129   -0.00000310
     atom  155 type  1   force =     0.00000275    0.00000256   -0.00000884
     atom  156 type  1   force =    -0.00000248   -0.00000034   -0.00000516
     atom  157 type  1   force =     0.00000138    0.00000055    0.00000486
     atom  158 type  1   force =     0.00000126    0.00000541    0.00000378
     atom  159 type  1   force =     0.00000442    0.00000111   -0.00000751
     atom  160 type  1   force =    -0.00000229    0.00000111   -0.00000146
     atom  161 type  1   force =     0.00000134   -0.00000505   -0.00000002
     atom  162 type  1   force =    -0.00001059    0.00000095    0.00000402
     atom  163 type  1   force =    -0.00001062   -0.00000264   -0.00000096
     atom  164 type  1   force =    -0.00000213   -0.00000052   -0.00000284
     atom  165 type  1   force =     0.00000355    0.00000004   -0.00000122
     atom  166 type  1   force =     0.00000218   -0.00000401    0.00000289
     atom  167 type  1   force =     0.00000383    0.00000410   -0.00000581
     atom  168 type  1   force =     0.00000227   -0.00000033    0.00000492
     atom  169 type  1   force =     0.00000233   -0.00000107    0.00000951
     atom  170 type  1   force =     0.00000465    0.00000063   -0.00000144
     atom  171 type  1   force =    -0.00000541    0.00000459    0.00000318
     atom  172 type  1   force =     0.00000164   -0.00000054   -0.00000454
     atom  173 type  1   force =     0.00000271   -0.00000110   -0.00000001
     atom  174 type  1   force =    -0.00000562    0.00000029   -0.00000062
     atom  175 type  1   force =     0.00000692    0.00000372   -0.00000336
     atom  176 type  1   force =    -0.00000080    0.00000015    0.00000218
     atom  177 type  1   force =    -0.00000552   -0.00000176   -0.00000166
     atom  178 type  1   force =     0.00000345   -0.00000653    0.00000774
     atom  179 type  1   force =    -0.00000451   -0.00000030   -0.00000493
     atom  180 type  1   force =    -0.00000331   -0.00000242    0.00000244
     atom  181 type  1   force =    -0.00000619   -0.00000532    0.00000613
     atom  182 type  1   force =    -0.00001029   -0.00000381    0.00000055
     atom  183 type  1   force =     0.00000493    0.00000368    0.00000294
     atom  184 type  1   force =    -0.00000121    0.00000363    0.00000094
     atom  185 type  1   force =    -0.00000982   -0.00000045    0.00000081
     atom  186 type  1   force =     0.00000568    0.00000010   -0.00000235
     atom  187 type  1   force =     0.00000228   -0.00000380   -0.00000769
     atom  188 type  1   force =    -0.00000792   -0.00000402    0.00000197
     atom  189 type  1   force =    -0.00000322   -0.00000338    0.00000314
     atom  190 type  1   force =     0.00000170   -0.00000130   -0.00000356
     atom  191 type  1   force =    -0.00000023   -0.00000303    0.00000123
     atom  192 type  1   force =     0.00000071    0.00000113   -0.00000862
     atom  193 type  1   force =    -0.00000502   -0.00000283   -0.00000123
     atom  194 type  1   force =     0.00000879   -0.00000182   -0.00000003
     atom  195 type  1   force =    -0.00000981   -0.00000458   -0.00000414
     atom  196 type  1   force =     0.00000225    0.00000625    0.00000863
     atom  197 type  1   force =     0.00000401    0.00000064   -0.00000062
     atom  198 type  1   force =    -0.00000219    0.00000341   -0.00000262
     atom  199 type  1   force =     0.00000550    0.00000025   -0.00001071
     atom  200 type  1   force =     0.00000215   -0.00000028    0.00000246
     atom  201 type  1   force =    -0.00000686   -0.00000277   -0.00000543
     atom  202 type  1   force =    -0.00000772   -0.00000409   -0.00000044
     atom  203 type  1   force =    -0.00000004    0.00000067   -0.00000372
     atom  204 type  1   force =    -0.00000052   -0.00000265   -0.00000240
     atom  205 type  1   force =     0.00000480   -0.00000006   -0.00000643
     atom  206 type  1   force =    -0.00000267    0.00000192    0.00000106
     atom  207 type  1   force =    -0.00000048    0.00000364   -0.00000285
     atom  208 type  1   force =     0.00000237    0.00000198    0.00000531
     atom  209 type  1   force =    -0.00000215   -0.00000297    0.00000638
     atom  210 type  1   force =     0.00000346    0.00000077   -0.00000522
     atom  211 type  1   force =    -0.00000339    0.00000112   -0.00000287
     atom  212 type  1   force =    -0.00000114    0.00000281   -0.00000057
     atom  213 type  1   force =    -0.00000596    0.00000305   -0.00000363
     atom  214 type  1   force =     0.00000334   -0.00000040    0.00000397
     atom  215 type  1   force =    -0.00000751   -0.00000453   -0.00000217
     atom  216 type  1   force =     0.00000504    0.00000327   -0.00001077
     atom  217 type  2   force =    -0.00000175   -0.00000020    0.00000177
     atom  218 type  2   force =    -0.00000026    0.00000113    0.00000236
     atom  219 type  2   force =    -0.00000213    0.00000018   -0.00000067
     atom  220 type  2   force =     0.00000008   -0.00000108    0.00000116
     atom  221 type  2   force =    -0.00000020   -0.00000061    0.00000102
     atom  222 type  2   force =     0.00000032    0.00000072    0.00000012
     atom  223 type  2   force =     0.00000179    0.00000131   -0.00000292
     atom  224 type  2   force =     0.00000204    0.00000062   -0.00000154
     atom  225 type  2   force =    -0.00000168    0.00000129   -0.00000069
     atom  226 type  2   force =     0.00000063   -0.00000003   -0.00000107
     atom  227 type  2   force =     0.00000139   -0.00000007   -0.00000039
     atom  228 type  2   force =     0.00000135    0.00000024   -0.00000102
     atom  229 type  2   force =    -0.00000113   -0.00000102    0.00000144
     atom  230 type  2   force =    -0.00000127   -0.00000119    0.00000087

     Total force =     0.157999     Total SCF correction =     0.000105


     Computing stress (Cartesian axis) and pressure

          total   stress  (Ry/bohr**3)                   (kbar)     P=   14.02
   0.00008152   0.00000786   0.00004039         11.99      1.16      5.94
   0.00000786   0.00011361   0.00000134          1.16     16.71      0.20
   0.00004039   0.00000134   0.00009079          5.94      0.20     13.36

     kinetic stress (kbar)   2278.58      0.59      4.82
                                0.59   2280.15      0.68
                                4.82      0.68   2280.73

     local   stress (kbar)  -1326.80     -5.14     -8.40
                               -5.14  -1312.83    -13.76
                               -8.40    -13.76  -1357.41

     nonloc. stress (kbar)   2542.86      2.55     -0.92
                                2.55   2538.32      0.56
                               -0.92      0.56   2549.75

     hartree stress (kbar)    256.81     -0.45      7.20
                               -0.45    264.88      7.04
                                7.20      7.04    260.69

     exc-cor stress (kbar)   -803.61      0.01     -0.00
                                0.01   -803.68     -0.06
                               -0.00     -0.06   -803.49

     corecor stress (kbar)      0.00      0.00      0.00
                                0.00      0.00      0.00
                                0.00      0.00      0.00

     ewald   stress (kbar)  -2935.86      3.59      3.25
                                3.59  -2950.13      5.74
                                3.25      5.74  -2916.90

     hubbard stress (kbar)      0.00      0.00      0.00
                                0.00      0.00      0.00
                                0.00      0.00      0.00

     london  stress (kbar)      0.00      0.00      0.00
                                0.00      0.00      0.00
                                0.00      0.00      0.00

     DFT-D3  stress (kbar)      0.00      0.00      0.00
                                0.00      0.00      0.00
                                0.00      0.00      0.00

     XDM     stress (kbar)      0.00      0.00      0.00
                                0.00      0.00      0.00
                                0.00      0.00      0.00

     dft-nl  stress (kbar)      0.00      0.00      0.00
                                0.00      0.00      0.00
                                0.00      0.00      0.00

     TS-vdW  stress (kbar)      0.00      0.00      0.00
                                0.00      0.00      0.00
                                0.00      0.00      0.00



     Writing output data file amorph_optimize1.save

     init_run     :    291.52s CPU    301.22s WALL (       1 calls)
     electrons    :  14046.82s CPU  14558.17s WALL (       1 calls)
     forces       :     87.79s CPU     89.23s WALL (       1 calls)
     stress       :    767.18s CPU    770.40s WALL (       1 calls)

     Called by init_run:
     wfcinit      :    278.33s CPU    287.88s WALL (       1 calls)
     wfcinit:atom :      0.88s CPU      1.73s WALL (       8 calls)
     wfcinit:wfcr :    266.14s CPU    273.56s WALL (       8 calls)
     potinit      :      5.33s CPU      5.40s WALL (       1 calls)

     Called by electrons:
     c_bands      :  12804.38s CPU  13266.54s WALL (      28 calls)
     sum_band     :   1232.58s CPU   1279.78s WALL (      28 calls)
     v_of_rho     :      8.14s CPU      8.43s WALL (      28 calls)
     v_h          :      0.56s CPU      0.59s WALL (      28 calls)
     v_xc         :      7.57s CPU      7.84s WALL (      28 calls)
     mix_rho      :      1.77s CPU      2.13s WALL (      28 calls)

     Called by c_bands:
     init_us_2    :     49.17s CPU     52.82s WALL (     472 calls)
     cegterg      :  12714.85s CPU  13131.92s WALL (     224 calls)

     Called by sum_band:

     Called by *egterg:
     h_psi        :   7505.59s CPU   7713.21s WALL (    1061 calls)
     g_psi        :     17.19s CPU     17.33s WALL (     829 calls)
     cdiaghg      :   1848.39s CPU   1860.87s WALL (    1045 calls)
     cegterg:over :   1456.24s CPU   1474.47s WALL (     829 calls)
     cegterg:upda :    901.88s CPU    914.99s WALL (     829 calls)
     cegterg:last :    578.12s CPU    585.83s WALL (     224 calls)

     Called by h_psi:
     h_psi:pot    :   7472.51s CPU   7676.23s WALL (    1061 calls)
     h_psi:calbec :   1265.48s CPU   1284.19s WALL (    1061 calls)
     vloc_psi     :   4966.25s CPU   5141.74s WALL (    1061 calls)
     add_vuspsi   :   1240.77s CPU   1250.30s WALL (    1061 calls)

     General routines
     calbec       :   1359.69s CPU   1379.47s WALL (    1101 calls)
     fft          :      4.96s CPU      5.31s WALL (     317 calls)
     fftw         :   5484.96s CPU   5692.88s WALL (  666250 calls)

     Parallel routines
     fft_scatt_xy :   1129.74s CPU   1140.29s WALL (  666567 calls)
     fft_scatt_yz :    840.78s CPU   1006.60s WALL (  666567 calls)

     PWSCF        :     4h13m CPU        4h22m WALL


   This run was terminated on:  12:56:41   7Nov2020            

=------------------------------------------------------------------------------=
   JOB DONE.
=------------------------------------------------------------------------------=
