
     Program PWSCF v.6.2 (svn rev. 14038) starts on  7Nov2020 at  8:20:25 

     This program is part of the open-source Quantum ESPRESSO suite
     for quantum simulation of materials; please cite
         "P. Giannozzi et al., J. Phys.:Condens. Matter 21 395502 (2009);
         "P. Giannozzi et al., J. Phys.:Condens. Matter 29 465901 (2017);
          URL http://www.quantum-espresso.org", 
     in publications or presentations arising from this work. More details at
     http://www.quantum-espresso.org/quote

     Parallel version (MPI), running on     8 processors

     MPI processes distributed on     1 nodes
     R & G space division:  proc/nbgrp/npool/nimage =       8
     Waiting for input...
     Reading input from standard input
Warning: card &IONS ignored
Warning: card / ignored

     Current dimensions of program PWSCF are:
     Max number of different atomic species (ntypx) = 10
     Max number of k-points (npk) =  40000
     Max angular momentum in pseudopotentials (lmaxx) =  3

     Subspace diagonalization in iterative solution of the eigenvalue problem:
     a serial algorithm will be used


     Parallelization info
     --------------------
     sticks:   dense  smooth     PW     G-vecs:    dense   smooth      PW
     Min        1589    1589    419               134811   134811   18265
     Max        1590    1590    420               134814   134814   18266
     Sum       12717   12717   3357              1078507  1078507  146125



     bravais-lattice index     =            0
     lattice parameter (alat)  =      30.8403  a.u.
     unit-cell volume          =   29332.9180 (a.u.)^3
     number of atoms/cell      =          227
     number of atomic types    =            2
     number of electrons       =       869.00
     number of Kohn-Sham states=          522
     kinetic-energy cutoff     =      42.0000  Ry
     charge density cutoff     =     168.0000  Ry
     convergence threshold     =      1.0E-08
     mixing beta               =       0.3000
     number of iterations used =            8  plain     mixing
     Exchange-correlation      = SLA-PW-PBX-PBC ( 1  4  3  4 0 0)

     celldm(1)=  30.840288  celldm(2)=   0.000000  celldm(3)=   0.000000
     celldm(4)=   0.000000  celldm(5)=   0.000000  celldm(6)=   0.000000

     crystal axes: (cart. coord. in units of alat)
               a(1) = (   1.000000   0.000000   0.000000 )  
               a(2) = (   0.000000   1.000000   0.000000 )  
               a(3) = (   0.000000   0.000000   1.000000 )  

     reciprocal axes: (cart. coord. in units 2 pi/alat)
               b(1) = (  1.000000  0.000000  0.000000 )  
               b(2) = (  0.000000  1.000000  0.000000 )  
               b(3) = (  0.000000  0.000000  1.000000 )  


     PseudoPot. # 1 for Si read from file:
     ./Si.pbe-hgh.UPF
     MD5 check sum: 9a9f0f6e09139bfdb36b03ff6bc35900
     Pseudo is Norm-conserving, Zval =  4.0
     Generated in analytical, separable form
     Using radial grid of 1141 points,  3 beta functions with: 
                l(1) =   0
                l(2) =   0
                l(3) =   1

     PseudoPot. # 2 for H  read from file:
     ./H.pbe-hgh.UPF
     MD5 check sum: 5f350582108a937bec95f27f5610ab08
     Pseudo is Norm-conserving, Zval =  1.0
     Generated in analytical, separable form
     Using radial grid of  929 points,  0 beta functions with: 

     atomic species   valence    mass     pseudopotential
        Si             4.00    28.08000     Si( 1.00)
        H              1.00     1.00784     H ( 1.00)

     No symmetry found


                                    s                        frac. trans.

      isym =  1     identity                                     

 cryst.   s( 1) = (     1          0          0      )
                  (     0          1          0      )
                  (     0          0          1      )

 cart.    s( 1) = (  1.0000000  0.0000000  0.0000000 )
                  (  0.0000000  1.0000000  0.0000000 )
                  (  0.0000000  0.0000000  1.0000000 )


   Cartesian axes

     site n.     atom                  positions (alat units)
         1           Si  tau(   1) = (   0.0846740   0.0868622   0.0900781  )
         2           Si  tau(   2) = (   0.1671020   0.1683080   0.0041448  )
         3           Si  tau(   3) = (   0.2511620   0.2514570   0.0859148  )
         4           Si  tau(   4) = (   0.1686230   0.0007612   0.1686190  )
         5           Si  tau(   5) = (   0.2505820   0.0841001   0.2521080  )
         6           Si  tau(   6) = (   0.9982380   0.1688050   0.1701500  )
         7           Si  tau(   7) = (   0.0831073   0.2501880   0.2531180  )
         8           Si  tau(   8) = (   0.9980430   0.0024568   0.3362570  )
         9           Si  tau(   9) = (   0.0829565   0.0843869   0.4186200  )
        10           Si  tau(  10) = (   0.1664810   0.1666660   0.3352750  )
        11           Si  tau(  11) = (   0.2498660   0.2503100   0.4181040  )
        12           Si  tau(  12) = (   0.1668110   0.0013685   0.5009590  )
        13           Si  tau(  13) = (   0.2491200   0.0845783   0.5848200  )
        14           Si  tau(  14) = (   0.9996240   0.1671800   0.5019320  )
        15           Si  tau(  15) = (   0.0834553   0.2505780   0.5840080  )
        16           Si  tau(  16) = (   0.9994600   0.0002477   0.6682450  )
        17           Si  tau(  17) = (   0.0813740   0.0847330   0.7515630  )
        18           Si  tau(  18) = (   0.1655500   0.1673960   0.6684110  )
        19           Si  tau(  19) = (   0.2486300   0.2498190   0.7525230  )
        20           Si  tau(  20) = (   0.1670600   0.0016806   0.8326740  )
        21           Si  tau(  21) = (   0.2488370   0.0839598   0.9193760  )
        22           Si  tau(  22) = (   0.9968100   0.1683670   0.8338620  )
        23           Si  tau(  23) = (   0.0816684   0.2482100   0.9192700  )
        24           Si  tau(  24) = (   0.9996890   0.3329420   0.0018645  )
        25           Si  tau(  25) = (   0.0818897   0.4135560   0.0881062  )
        26           Si  tau(  26) = (   0.1755620   0.4897310   0.0121667  )
        27           Si  tau(  27) = (   0.2522430   0.5827010   0.0881741  )
        28           Si  tau(  28) = (   0.1671720   0.3324690   0.1703780  )
        29           Si  tau(  29) = (   0.2495060   0.4173350   0.2525540  )
        30           Si  tau(  30) = (   0.0002521   0.4996610   0.1692210  )
        31           Si  tau(  31) = (   0.0824250   0.5849860   0.2510720  )
        32           Si  tau(  32) = (   0.9995150   0.3335300   0.3356510  )
        33           Si  tau(  33) = (   0.0835599   0.4169020   0.4175820  )
        34           Si  tau(  34) = (   0.1657550   0.5014210   0.3344150  )
        35           Si  tau(  35) = (   0.2489920   0.5846130   0.4174300  )
        36           Si  tau(  36) = (   0.1669180   0.3340060   0.5011510  )
        37           Si  tau(  37) = (   0.2498510   0.4173880   0.5848530  )
        38           Si  tau(  38) = (   0.0001985   0.4993000   0.5009150  )
        39           Si  tau(  39) = (   0.0832778   0.5832840   0.5828000  )
        40           Si  tau(  40) = (   0.0001844   0.3341590   0.6662850  )
        41           Si  tau(  41) = (   0.0843997   0.4157350   0.7499020  )
        42           Si  tau(  42) = (   0.1665590   0.5008860   0.6671840  )
        43           Si  tau(  43) = (   0.2526030   0.5824560   0.7499290  )
        44           Si  tau(  44) = (   0.1644830   0.3321290   0.8361260  )
        45           Si  tau(  45) = (   0.2503350   0.4132330   0.9181430  )
        46           Si  tau(  46) = (   0.9948440   0.4952030   0.8291580  )
        47           Si  tau(  47) = (   0.0589774   0.6067130   0.8934130  )
        48           Si  tau(  48) = (   0.9933070   0.6708690   0.0033935  )
        49           Si  tau(  49) = (   0.0844699   0.7510030   0.0806742  )
        50           Si  tau(  50) = (   0.1693850   0.8346070   0.9994080  )
        51           Si  tau(  51) = (   0.2512120   0.9169660   0.0850396  )
        52           Si  tau(  52) = (   0.1659180   0.6669060   0.1663090  )
        53           Si  tau(  53) = (   0.2481950   0.7510880   0.2510470  )
        54           Si  tau(  54) = (   0.0160612   0.8184480   0.1855060  )
        55           Si  tau(  55) = (   0.0845144   0.9223190   0.2544300  )
        56           Si  tau(  56) = (   0.9976210   0.6667220   0.3347070  )
        57           Si  tau(  57) = (   0.0816075   0.7516720   0.4158680  )
        58           Si  tau(  58) = (   0.1669180   0.8361680   0.3354440  )
        59           Si  tau(  59) = (   0.2508870   0.9176940   0.4192480  )
        60           Si  tau(  60) = (   0.1648180   0.6683430   0.4994540  )
        61           Si  tau(  61) = (   0.2475300   0.7518550   0.5825730  )
        62           Si  tau(  62) = (   0.9989840   0.8344810   0.5000770  )
        63           Si  tau(  63) = (   0.0817070   0.9191630   0.5822100  )
        64           Si  tau(  64) = (   0.9985300   0.6656000   0.6647930  )
        65           Si  tau(  65) = (   0.0845436   0.7494440   0.7449800  )
        66           Si  tau(  66) = (   0.1654080   0.8368710   0.6642590  )
        67           Si  tau(  67) = (   0.2490800   0.9189080   0.7485290  )
        68           Si  tau(  68) = (   0.1705970   0.6699930   0.8290150  )
        69           Si  tau(  69) = (   0.2527290   0.7505150   0.9163250  )
        70           Si  tau(  70) = (   0.0066158   0.8225180   0.8415920  )
        71           Si  tau(  71) = (   0.0860712   0.9174450   0.9164460  )
        72           Si  tau(  72) = (   0.3335780   0.0010483   0.0018022  )
        73           Si  tau(  73) = (   0.4165630   0.0839918   0.0855042  )
        74           Si  tau(  74) = (   0.5000280   0.1665160   0.0020712  )
        75           Si  tau(  75) = (   0.5832550   0.2499610   0.0850414  )
        76           Si  tau(  76) = (   0.4991320   0.0015460   0.1696730  )
        77           Si  tau(  77) = (   0.5830280   0.0841914   0.2521760  )
        78           Si  tau(  78) = (   0.3335330   0.1672550   0.1685770  )
        79           Si  tau(  79) = (   0.4165440   0.2501670   0.2516840  )
        80           Si  tau(  80) = (   0.3333630   0.0004490   0.3352390  )
        81           Si  tau(  81) = (   0.4164440   0.0838690   0.4177980  )
        82           Si  tau(  82) = (   0.4994500   0.1670330   0.3348500  )
        83           Si  tau(  83) = (   0.5811800   0.2506450   0.4186460  )
        84           Si  tau(  84) = (   0.5003230   0.0009109   0.5001240  )
        85           Si  tau(  85) = (   0.5830280   0.0834421   0.5844330  )
        86           Si  tau(  86) = (   0.3327430   0.1666480   0.5010620  )
        87           Si  tau(  87) = (   0.4154360   0.2490310   0.5849950  )
        88           Si  tau(  88) = (   0.3336630   0.0016503   0.6666460  )
        89           Si  tau(  89) = (   0.4160090   0.0838726   0.7514850  )
        90           Si  tau(  90) = (   0.4996670   0.1662890   0.6678930  )
        91           Si  tau(  91) = (   0.5832750   0.2476490   0.7525080  )
        92           Si  tau(  92) = (   0.4997850   0.0009903   0.8343340  )
        93           Si  tau(  93) = (   0.5827650   0.0835968   0.9183720  )
        94           Si  tau(  94) = (   0.3325610   0.1665700   0.8353880  )
        95           Si  tau(  95) = (   0.4167070   0.2487460   0.9187690  )
        96           Si  tau(  96) = (   0.3348550   0.3325480   0.0020283  )
        97           Si  tau(  97) = (   0.4168130   0.4155940   0.0860961  )
        98           Si  tau(  98) = (   0.5011750   0.4974490   0.0037347  )
        99           Si  tau(  99) = (   0.5820520   0.5818720   0.0867005  )
       100           Si  tau( 100) = (   0.5001540   0.3327600   0.1686970  )
       101           Si  tau( 101) = (   0.5830120   0.4163890   0.2516560  )
       102           Si  tau( 102) = (   0.3350980   0.4990880   0.1704540  )
       103           Si  tau( 103) = (   0.4169790   0.5839240   0.2524310  )
       104           Si  tau( 104) = (   0.3329450   0.3333480   0.3346790  )
       105           Si  tau( 105) = (   0.4155430   0.4172010   0.4173310  )
       106           Si  tau( 106) = (   0.5000180   0.4999450   0.3347160  )
       107           Si  tau( 107) = (   0.5829920   0.5847110   0.4160920  )
       108           Si  tau( 108) = (   0.4961760   0.3332820   0.5013640  )
       109           Si  tau( 109) = (   0.5894860   0.4112730   0.5795020  )
       110           Si  tau( 110) = (   0.3319070   0.5000590   0.4999040  )
       111           Si  tau( 111) = (   0.4152720   0.5865360   0.5788830  )
       112           Si  tau( 112) = (   0.3315130   0.3316990   0.6674290  )
       113           Si  tau( 113) = (   0.4155000   0.4100990   0.7535620  )
       114           Si  tau( 114) = (   0.4805780   0.5201220   0.6882310  )
       115           Si  tau( 115) = (   0.5012190   0.3305600   0.8363660  )
       116           Si  tau( 116) = (   0.5828070   0.4152230   0.9187830  )
       117           Si  tau( 117) = (   0.3325370   0.4965720   0.8336350  )
       118           Si  tau( 118) = (   0.4107330   0.5745730   0.9251750  )
       119           Si  tau( 119) = (   0.3319300   0.6663320   0.0027987  )
       120           Si  tau( 120) = (   0.4153690   0.7491830   0.0858732  )
       121           Si  tau( 121) = (   0.4949230   0.8349840   0.0026321  )
       122           Si  tau( 122) = (   0.5797180   0.9173660   0.0852101  )
       123           Si  tau( 123) = (   0.4996710   0.6667870   0.1685380  )
       124           Si  tau( 124) = (   0.5825230   0.7506290   0.2515840  )
       125           Si  tau( 125) = (   0.3334530   0.8335520   0.1689700  )
       126           Si  tau( 126) = (   0.4164420   0.9173600   0.2520600  )
       127           Si  tau( 127) = (   0.3323960   0.6676230   0.3340860  )
       128           Si  tau( 128) = (   0.4158820   0.7510220   0.4171030  )
       129           Si  tau( 129) = (   0.4998230   0.8341470   0.3349750  )
       130           Si  tau( 130) = (   0.5839860   0.9173350   0.4174910  )
       131           Si  tau( 131) = (   0.5008470   0.6687410   0.4986920  )
       132           Si  tau( 132) = (   0.5827050   0.7514850   0.5827260  )
       133           Si  tau( 133) = (   0.3336140   0.8338290   0.5012720  )
       134           Si  tau( 134) = (   0.4165500   0.9186810   0.5827640  )
       135           Si  tau( 135) = (   0.3314150   0.6670550   0.6637470  )
       136           Si  tau( 136) = (   0.4087710   0.7595060   0.7411190  )
       137           Si  tau( 137) = (   0.5013450   0.8368550   0.6643320  )
       138           Si  tau( 138) = (   0.5821420   0.9186540   0.7499610  )
       139           Si  tau( 139) = (   0.5951300   0.5821620   0.7488470  )
       140           Si  tau( 140) = (   0.5978100   0.7651590   0.9332070  )
       141           Si  tau( 141) = (   0.3317400   0.8374060   0.8332720  )
       142           Si  tau( 142) = (   0.4157180   0.9187450   0.9168310  )
       143           Si  tau( 143) = (   0.6642790   0.9998340   0.0019501  )
       144           Si  tau( 144) = (   0.7472570   0.0840791   0.0844671  )
       145           Si  tau( 145) = (   0.8305840   0.1684850   0.0028753  )
       146           Si  tau( 146) = (   0.9155060   0.2506170   0.0852232  )
       147           Si  tau( 147) = (   0.8305890   0.0045855   0.1701930  )
       148           Si  tau( 148) = (   0.9156330   0.0854848   0.2529720  )
       149           Si  tau( 149) = (   0.6659710   0.1673350   0.1690190  )
       150           Si  tau( 150) = (   0.7490920   0.2507690   0.2522500  )
       151           Si  tau( 151) = (   0.6668860   0.0007556   0.3341230  )
       152           Si  tau( 152) = (   0.7488520   0.0842346   0.4186160  )
       153           Si  tau( 153) = (   0.8319010   0.1676410   0.3356620  )
       154           Si  tau( 154) = (   0.9158530   0.2502630   0.4187230  )
       155           Si  tau( 155) = (   0.8324170   0.0008381   0.5016140  )
       156           Si  tau( 156) = (   0.9164040   0.0833194   0.5847680  )
       157           Si  tau( 157) = (   0.6653540   0.1679170   0.5018510  )
       158           Si  tau( 158) = (   0.7496680   0.2497040   0.5858250  )
       159           Si  tau( 159) = (   0.6668600   0.0008526   0.6676740  )
       160           Si  tau( 160) = (   0.7508700   0.0833095   0.7508540  )
       161           Si  tau( 161) = (   0.8339300   0.1668210   0.6678310  )
       162           Si  tau( 162) = (   0.9166590   0.2520490   0.7494210  )
       163           Si  tau( 163) = (   0.8338030   0.9993250   0.8332660  )
       164           Si  tau( 164) = (   0.9111320   0.0869821   0.9165120  )
       165           Si  tau( 165) = (   0.6673430   0.1652950   0.8352160  )
       166           Si  tau( 166) = (   0.7492710   0.2506650   0.9174780  )
       167           Si  tau( 167) = (   0.6664610   0.3331550   0.0017128  )
       168           Si  tau( 168) = (   0.7492660   0.4165980   0.0851213  )
       169           Si  tau( 169) = (   0.8327970   0.4995930   0.0022123  )
       170           Si  tau( 170) = (   0.9160460   0.5818100   0.0862883  )
       171           Si  tau( 171) = (   0.8325660   0.3337850   0.1687060  )
       172           Si  tau( 172) = (   0.9165700   0.4164120   0.2516870  )
       173           Si  tau( 173) = (   0.6665630   0.4996400   0.1690210  )
       174           Si  tau( 174) = (   0.7499340   0.5827430   0.2521700  )
       175           Si  tau( 175) = (   0.6655040   0.3337870   0.3359300  )
       176           Si  tau( 176) = (   0.7497500   0.4177000   0.4177100  )
       177           Si  tau( 177) = (   0.8338400   0.4997550   0.3347120  )
       178           Si  tau( 178) = (   0.9170540   0.5823250   0.4183560  )
       179           Si  tau( 179) = (   0.8318730   0.3334110   0.5014980  )
       180           Si  tau( 180) = (   0.9162710   0.4164270   0.5832030  )
       181           Si  tau( 181) = (   0.6667500   0.5033620   0.4989090  )
       182           Si  tau( 182) = (   0.7505180   0.5846720   0.5811570  )
       183           Si  tau( 183) = (   0.6672220   0.3312590   0.6717400  )
       184           Si  tau( 184) = (   0.7510570   0.4157890   0.7512100  )
       185           Si  tau( 185) = (   0.8303480   0.4986460   0.6637750  )
       186           Si  tau( 186) = (   0.9134060   0.5811460   0.7462500  )
       187           Si  tau( 187) = (   0.8336480   0.3330470   0.8344970  )
       188           Si  tau( 188) = (   0.9157820   0.4156700   0.9192310  )
       189           Si  tau( 189) = (   0.6687270   0.4958690   0.8364240  )
       190           Si  tau( 190) = (   0.7499640   0.5809890   0.9176330  )
       191           Si  tau( 191) = (   0.6664990   0.6613780   0.0024927  )
       192           Si  tau( 192) = (   0.7466960   0.7469540   0.0864048  )
       193           Si  tau( 193) = (   0.8229890   0.8263590   0.9946600  )
       194           Si  tau( 194) = (   0.0169952   0.0206125   0.9840480  )
       195           Si  tau( 195) = (   0.8322490   0.6652040   0.1683970  )
       196           Si  tau( 196) = (   0.9119690   0.7491070   0.2532730  )
       197           Si  tau( 197) = (   0.6642060   0.8335590   0.1670910  )
       198           Si  tau( 198) = (   0.7485780   0.9169720   0.2493880  )
       199           Si  tau( 199) = (   0.6667760   0.6674660   0.3337490  )
       200           Si  tau( 200) = (   0.7495930   0.7505950   0.4174520  )
       201           Si  tau( 201) = (   0.8310760   0.8354660   0.3346470  )
       202           Si  tau( 202) = (   0.9150910   0.9176910   0.4177590  )
       203           Si  tau( 203) = (   0.8341560   0.6675480   0.4994150  )
       204           Si  tau( 204) = (   0.9162120   0.7510950   0.5831330  )
       205           Si  tau( 205) = (   0.6671980   0.8342540   0.5011540  )
       206           Si  tau( 206) = (   0.7503580   0.9169880   0.5853700  )
       207           Si  tau( 207) = (   0.6692010   0.6694500   0.6628620  )
       208           Si  tau( 208) = (   0.7501450   0.7504840   0.7486590  )
       209           Si  tau( 209) = (   0.8352370   0.8346720   0.6687290  )
       210           Si  tau( 210) = (   0.9200930   0.9149860   0.7537380  )
       211           Si  tau( 211) = (   0.8294590   0.6627890   0.8302720  )
       212           Si  tau( 212) = (   0.9094360   0.7456420   0.9145470  )
       213           Si  tau( 213) = (   0.6669710   0.8350630   0.8300240  )
       214           Si  tau( 214) = (   0.7475860   0.9192940   0.9160830  )
       215           H   tau( 215) = (   0.5658780   0.6457620   0.8117240  )
       216           H   tau( 216) = (   0.4615970   0.6326480   0.8704470  )
       217           H   tau( 217) = (   0.8906000   0.8683550   0.0428467  )
       218           H   tau( 218) = (   0.1178950   0.5456450   0.9550130  )
       219           H   tau( 219) = (   0.8867960   0.9565100   0.1132010  )
       220           H   tau( 220) = (   0.0025771   0.6599030   0.8387660  )
       221           H   tau( 221) = (   0.6448420   0.3559500   0.5250080  )
       222           H   tau( 222) = (   0.4626790   0.7090980   0.8009030  )
       223           H   tau( 223) = (   0.4212320   0.5705350   0.7431690  )
       224           H   tau( 224) = (   0.0710185   0.0745925   0.9300970  )
       225           H   tau( 225) = (   0.6523220   0.8181680   0.9876280  )
       226           H   tau( 226) = (   0.0713844   0.7641140   0.2383440  )
       227           H   tau( 227) = (   0.0618216   0.7697790   0.9030830  )

   Crystallographic axes

     site n.     atom                  positions (cryst. coord.)
         1           Si  tau(   1) = (  0.0846740  0.0868622  0.0900781  )
         2           Si  tau(   2) = (  0.1671020  0.1683080  0.0041448  )
         3           Si  tau(   3) = (  0.2511620  0.2514570  0.0859148  )
         4           Si  tau(   4) = (  0.1686230  0.0007612  0.1686190  )
         5           Si  tau(   5) = (  0.2505820  0.0841001  0.2521080  )
         6           Si  tau(   6) = (  0.9982380  0.1688050  0.1701500  )
         7           Si  tau(   7) = (  0.0831073  0.2501880  0.2531180  )
         8           Si  tau(   8) = (  0.9980430  0.0024568  0.3362570  )
         9           Si  tau(   9) = (  0.0829565  0.0843869  0.4186200  )
        10           Si  tau(  10) = (  0.1664810  0.1666660  0.3352750  )
        11           Si  tau(  11) = (  0.2498660  0.2503100  0.4181040  )
        12           Si  tau(  12) = (  0.1668110  0.0013685  0.5009590  )
        13           Si  tau(  13) = (  0.2491200  0.0845783  0.5848200  )
        14           Si  tau(  14) = (  0.9996240  0.1671800  0.5019320  )
        15           Si  tau(  15) = (  0.0834553  0.2505780  0.5840080  )
        16           Si  tau(  16) = (  0.9994600  0.0002477  0.6682450  )
        17           Si  tau(  17) = (  0.0813740  0.0847330  0.7515630  )
        18           Si  tau(  18) = (  0.1655500  0.1673960  0.6684110  )
        19           Si  tau(  19) = (  0.2486300  0.2498190  0.7525230  )
        20           Si  tau(  20) = (  0.1670600  0.0016806  0.8326740  )
        21           Si  tau(  21) = (  0.2488370  0.0839598  0.9193760  )
        22           Si  tau(  22) = (  0.9968100  0.1683670  0.8338620  )
        23           Si  tau(  23) = (  0.0816684  0.2482100  0.9192700  )
        24           Si  tau(  24) = (  0.9996890  0.3329420  0.0018645  )
        25           Si  tau(  25) = (  0.0818897  0.4135560  0.0881062  )
        26           Si  tau(  26) = (  0.1755620  0.4897310  0.0121667  )
        27           Si  tau(  27) = (  0.2522430  0.5827010  0.0881741  )
        28           Si  tau(  28) = (  0.1671720  0.3324690  0.1703780  )
        29           Si  tau(  29) = (  0.2495060  0.4173350  0.2525540  )
        30           Si  tau(  30) = (  0.0002521  0.4996610  0.1692210  )
        31           Si  tau(  31) = (  0.0824250  0.5849860  0.2510720  )
        32           Si  tau(  32) = (  0.9995150  0.3335300  0.3356510  )
        33           Si  tau(  33) = (  0.0835599  0.4169020  0.4175820  )
        34           Si  tau(  34) = (  0.1657550  0.5014210  0.3344150  )
        35           Si  tau(  35) = (  0.2489920  0.5846130  0.4174300  )
        36           Si  tau(  36) = (  0.1669180  0.3340060  0.5011510  )
        37           Si  tau(  37) = (  0.2498510  0.4173880  0.5848530  )
        38           Si  tau(  38) = (  0.0001985  0.4993000  0.5009150  )
        39           Si  tau(  39) = (  0.0832778  0.5832840  0.5828000  )
        40           Si  tau(  40) = (  0.0001844  0.3341590  0.6662850  )
        41           Si  tau(  41) = (  0.0843997  0.4157350  0.7499020  )
        42           Si  tau(  42) = (  0.1665590  0.5008860  0.6671840  )
        43           Si  tau(  43) = (  0.2526030  0.5824560  0.7499290  )
        44           Si  tau(  44) = (  0.1644830  0.3321290  0.8361260  )
        45           Si  tau(  45) = (  0.2503350  0.4132330  0.9181430  )
        46           Si  tau(  46) = (  0.9948440  0.4952030  0.8291580  )
        47           Si  tau(  47) = (  0.0589774  0.6067130  0.8934130  )
        48           Si  tau(  48) = (  0.9933070  0.6708690  0.0033935  )
        49           Si  tau(  49) = (  0.0844699  0.7510030  0.0806742  )
        50           Si  tau(  50) = (  0.1693850  0.8346070  0.9994080  )
        51           Si  tau(  51) = (  0.2512120  0.9169660  0.0850396  )
        52           Si  tau(  52) = (  0.1659180  0.6669060  0.1663090  )
        53           Si  tau(  53) = (  0.2481950  0.7510880  0.2510470  )
        54           Si  tau(  54) = (  0.0160612  0.8184480  0.1855060  )
        55           Si  tau(  55) = (  0.0845144  0.9223190  0.2544300  )
        56           Si  tau(  56) = (  0.9976210  0.6667220  0.3347070  )
        57           Si  tau(  57) = (  0.0816075  0.7516720  0.4158680  )
        58           Si  tau(  58) = (  0.1669180  0.8361680  0.3354440  )
        59           Si  tau(  59) = (  0.2508870  0.9176940  0.4192480  )
        60           Si  tau(  60) = (  0.1648180  0.6683430  0.4994540  )
        61           Si  tau(  61) = (  0.2475300  0.7518550  0.5825730  )
        62           Si  tau(  62) = (  0.9989840  0.8344810  0.5000770  )
        63           Si  tau(  63) = (  0.0817070  0.9191630  0.5822100  )
        64           Si  tau(  64) = (  0.9985300  0.6656000  0.6647930  )
        65           Si  tau(  65) = (  0.0845436  0.7494440  0.7449800  )
        66           Si  tau(  66) = (  0.1654080  0.8368710  0.6642590  )
        67           Si  tau(  67) = (  0.2490800  0.9189080  0.7485290  )
        68           Si  tau(  68) = (  0.1705970  0.6699930  0.8290150  )
        69           Si  tau(  69) = (  0.2527290  0.7505150  0.9163250  )
        70           Si  tau(  70) = (  0.0066158  0.8225180  0.8415920  )
        71           Si  tau(  71) = (  0.0860712  0.9174450  0.9164460  )
        72           Si  tau(  72) = (  0.3335780  0.0010483  0.0018022  )
        73           Si  tau(  73) = (  0.4165630  0.0839918  0.0855042  )
        74           Si  tau(  74) = (  0.5000280  0.1665160  0.0020712  )
        75           Si  tau(  75) = (  0.5832550  0.2499610  0.0850414  )
        76           Si  tau(  76) = (  0.4991320  0.0015460  0.1696730  )
        77           Si  tau(  77) = (  0.5830280  0.0841914  0.2521760  )
        78           Si  tau(  78) = (  0.3335330  0.1672550  0.1685770  )
        79           Si  tau(  79) = (  0.4165440  0.2501670  0.2516840  )
        80           Si  tau(  80) = (  0.3333630  0.0004490  0.3352390  )
        81           Si  tau(  81) = (  0.4164440  0.0838690  0.4177980  )
        82           Si  tau(  82) = (  0.4994500  0.1670330  0.3348500  )
        83           Si  tau(  83) = (  0.5811800  0.2506450  0.4186460  )
        84           Si  tau(  84) = (  0.5003230  0.0009109  0.5001240  )
        85           Si  tau(  85) = (  0.5830280  0.0834421  0.5844330  )
        86           Si  tau(  86) = (  0.3327430  0.1666480  0.5010620  )
        87           Si  tau(  87) = (  0.4154360  0.2490310  0.5849950  )
        88           Si  tau(  88) = (  0.3336630  0.0016503  0.6666460  )
        89           Si  tau(  89) = (  0.4160090  0.0838726  0.7514850  )
        90           Si  tau(  90) = (  0.4996670  0.1662890  0.6678930  )
        91           Si  tau(  91) = (  0.5832750  0.2476490  0.7525080  )
        92           Si  tau(  92) = (  0.4997850  0.0009903  0.8343340  )
        93           Si  tau(  93) = (  0.5827650  0.0835968  0.9183720  )
        94           Si  tau(  94) = (  0.3325610  0.1665700  0.8353880  )
        95           Si  tau(  95) = (  0.4167070  0.2487460  0.9187690  )
        96           Si  tau(  96) = (  0.3348550  0.3325480  0.0020283  )
        97           Si  tau(  97) = (  0.4168130  0.4155940  0.0860961  )
        98           Si  tau(  98) = (  0.5011750  0.4974490  0.0037347  )
        99           Si  tau(  99) = (  0.5820520  0.5818720  0.0867005  )
       100           Si  tau( 100) = (  0.5001540  0.3327600  0.1686970  )
       101           Si  tau( 101) = (  0.5830120  0.4163890  0.2516560  )
       102           Si  tau( 102) = (  0.3350980  0.4990880  0.1704540  )
       103           Si  tau( 103) = (  0.4169790  0.5839240  0.2524310  )
       104           Si  tau( 104) = (  0.3329450  0.3333480  0.3346790  )
       105           Si  tau( 105) = (  0.4155430  0.4172010  0.4173310  )
       106           Si  tau( 106) = (  0.5000180  0.4999450  0.3347160  )
       107           Si  tau( 107) = (  0.5829920  0.5847110  0.4160920  )
       108           Si  tau( 108) = (  0.4961760  0.3332820  0.5013640  )
       109           Si  tau( 109) = (  0.5894860  0.4112730  0.5795020  )
       110           Si  tau( 110) = (  0.3319070  0.5000590  0.4999040  )
       111           Si  tau( 111) = (  0.4152720  0.5865360  0.5788830  )
       112           Si  tau( 112) = (  0.3315130  0.3316990  0.6674290  )
       113           Si  tau( 113) = (  0.4155000  0.4100990  0.7535620  )
       114           Si  tau( 114) = (  0.4805780  0.5201220  0.6882310  )
       115           Si  tau( 115) = (  0.5012190  0.3305600  0.8363660  )
       116           Si  tau( 116) = (  0.5828070  0.4152230  0.9187830  )
       117           Si  tau( 117) = (  0.3325370  0.4965720  0.8336350  )
       118           Si  tau( 118) = (  0.4107330  0.5745730  0.9251750  )
       119           Si  tau( 119) = (  0.3319300  0.6663320  0.0027987  )
       120           Si  tau( 120) = (  0.4153690  0.7491830  0.0858732  )
       121           Si  tau( 121) = (  0.4949230  0.8349840  0.0026321  )
       122           Si  tau( 122) = (  0.5797180  0.9173660  0.0852101  )
       123           Si  tau( 123) = (  0.4996710  0.6667870  0.1685380  )
       124           Si  tau( 124) = (  0.5825230  0.7506290  0.2515840  )
       125           Si  tau( 125) = (  0.3334530  0.8335520  0.1689700  )
       126           Si  tau( 126) = (  0.4164420  0.9173600  0.2520600  )
       127           Si  tau( 127) = (  0.3323960  0.6676230  0.3340860  )
       128           Si  tau( 128) = (  0.4158820  0.7510220  0.4171030  )
       129           Si  tau( 129) = (  0.4998230  0.8341470  0.3349750  )
       130           Si  tau( 130) = (  0.5839860  0.9173350  0.4174910  )
       131           Si  tau( 131) = (  0.5008470  0.6687410  0.4986920  )
       132           Si  tau( 132) = (  0.5827050  0.7514850  0.5827260  )
       133           Si  tau( 133) = (  0.3336140  0.8338290  0.5012720  )
       134           Si  tau( 134) = (  0.4165500  0.9186810  0.5827640  )
       135           Si  tau( 135) = (  0.3314150  0.6670550  0.6637470  )
       136           Si  tau( 136) = (  0.4087710  0.7595060  0.7411190  )
       137           Si  tau( 137) = (  0.5013450  0.8368550  0.6643320  )
       138           Si  tau( 138) = (  0.5821420  0.9186540  0.7499610  )
       139           Si  tau( 139) = (  0.5951300  0.5821620  0.7488470  )
       140           Si  tau( 140) = (  0.5978100  0.7651590  0.9332070  )
       141           Si  tau( 141) = (  0.3317400  0.8374060  0.8332720  )
       142           Si  tau( 142) = (  0.4157180  0.9187450  0.9168310  )
       143           Si  tau( 143) = (  0.6642790  0.9998340  0.0019501  )
       144           Si  tau( 144) = (  0.7472570  0.0840791  0.0844671  )
       145           Si  tau( 145) = (  0.8305840  0.1684850  0.0028753  )
       146           Si  tau( 146) = (  0.9155060  0.2506170  0.0852232  )
       147           Si  tau( 147) = (  0.8305890  0.0045855  0.1701930  )
       148           Si  tau( 148) = (  0.9156330  0.0854848  0.2529720  )
       149           Si  tau( 149) = (  0.6659710  0.1673350  0.1690190  )
       150           Si  tau( 150) = (  0.7490920  0.2507690  0.2522500  )
       151           Si  tau( 151) = (  0.6668860  0.0007556  0.3341230  )
       152           Si  tau( 152) = (  0.7488520  0.0842346  0.4186160  )
       153           Si  tau( 153) = (  0.8319010  0.1676410  0.3356620  )
       154           Si  tau( 154) = (  0.9158530  0.2502630  0.4187230  )
       155           Si  tau( 155) = (  0.8324170  0.0008381  0.5016140  )
       156           Si  tau( 156) = (  0.9164040  0.0833194  0.5847680  )
       157           Si  tau( 157) = (  0.6653540  0.1679170  0.5018510  )
       158           Si  tau( 158) = (  0.7496680  0.2497040  0.5858250  )
       159           Si  tau( 159) = (  0.6668600  0.0008526  0.6676740  )
       160           Si  tau( 160) = (  0.7508700  0.0833095  0.7508540  )
       161           Si  tau( 161) = (  0.8339300  0.1668210  0.6678310  )
       162           Si  tau( 162) = (  0.9166590  0.2520490  0.7494210  )
       163           Si  tau( 163) = (  0.8338030  0.9993250  0.8332660  )
       164           Si  tau( 164) = (  0.9111320  0.0869821  0.9165120  )
       165           Si  tau( 165) = (  0.6673430  0.1652950  0.8352160  )
       166           Si  tau( 166) = (  0.7492710  0.2506650  0.9174780  )
       167           Si  tau( 167) = (  0.6664610  0.3331550  0.0017128  )
       168           Si  tau( 168) = (  0.7492660  0.4165980  0.0851213  )
       169           Si  tau( 169) = (  0.8327970  0.4995930  0.0022123  )
       170           Si  tau( 170) = (  0.9160460  0.5818100  0.0862883  )
       171           Si  tau( 171) = (  0.8325660  0.3337850  0.1687060  )
       172           Si  tau( 172) = (  0.9165700  0.4164120  0.2516870  )
       173           Si  tau( 173) = (  0.6665630  0.4996400  0.1690210  )
       174           Si  tau( 174) = (  0.7499340  0.5827430  0.2521700  )
       175           Si  tau( 175) = (  0.6655040  0.3337870  0.3359300  )
       176           Si  tau( 176) = (  0.7497500  0.4177000  0.4177100  )
       177           Si  tau( 177) = (  0.8338400  0.4997550  0.3347120  )
       178           Si  tau( 178) = (  0.9170540  0.5823250  0.4183560  )
       179           Si  tau( 179) = (  0.8318730  0.3334110  0.5014980  )
       180           Si  tau( 180) = (  0.9162710  0.4164270  0.5832030  )
       181           Si  tau( 181) = (  0.6667500  0.5033620  0.4989090  )
       182           Si  tau( 182) = (  0.7505180  0.5846720  0.5811570  )
       183           Si  tau( 183) = (  0.6672220  0.3312590  0.6717400  )
       184           Si  tau( 184) = (  0.7510570  0.4157890  0.7512100  )
       185           Si  tau( 185) = (  0.8303480  0.4986460  0.6637750  )
       186           Si  tau( 186) = (  0.9134060  0.5811460  0.7462500  )
       187           Si  tau( 187) = (  0.8336480  0.3330470  0.8344970  )
       188           Si  tau( 188) = (  0.9157820  0.4156700  0.9192310  )
       189           Si  tau( 189) = (  0.6687270  0.4958690  0.8364240  )
       190           Si  tau( 190) = (  0.7499640  0.5809890  0.9176330  )
       191           Si  tau( 191) = (  0.6664990  0.6613780  0.0024927  )
       192           Si  tau( 192) = (  0.7466960  0.7469540  0.0864048  )
       193           Si  tau( 193) = (  0.8229890  0.8263590  0.9946600  )
       194           Si  tau( 194) = (  0.0169952  0.0206125  0.9840480  )
       195           Si  tau( 195) = (  0.8322490  0.6652040  0.1683970  )
       196           Si  tau( 196) = (  0.9119690  0.7491070  0.2532730  )
       197           Si  tau( 197) = (  0.6642060  0.8335590  0.1670910  )
       198           Si  tau( 198) = (  0.7485780  0.9169720  0.2493880  )
       199           Si  tau( 199) = (  0.6667760  0.6674660  0.3337490  )
       200           Si  tau( 200) = (  0.7495930  0.7505950  0.4174520  )
       201           Si  tau( 201) = (  0.8310760  0.8354660  0.3346470  )
       202           Si  tau( 202) = (  0.9150910  0.9176910  0.4177590  )
       203           Si  tau( 203) = (  0.8341560  0.6675480  0.4994150  )
       204           Si  tau( 204) = (  0.9162120  0.7510950  0.5831330  )
       205           Si  tau( 205) = (  0.6671980  0.8342540  0.5011540  )
       206           Si  tau( 206) = (  0.7503580  0.9169880  0.5853700  )
       207           Si  tau( 207) = (  0.6692010  0.6694500  0.6628620  )
       208           Si  tau( 208) = (  0.7501450  0.7504840  0.7486590  )
       209           Si  tau( 209) = (  0.8352370  0.8346720  0.6687290  )
       210           Si  tau( 210) = (  0.9200930  0.9149860  0.7537380  )
       211           Si  tau( 211) = (  0.8294590  0.6627890  0.8302720  )
       212           Si  tau( 212) = (  0.9094360  0.7456420  0.9145470  )
       213           Si  tau( 213) = (  0.6669710  0.8350630  0.8300240  )
       214           Si  tau( 214) = (  0.7475860  0.9192940  0.9160830  )
       215           H   tau( 215) = (  0.5658780  0.6457620  0.8117240  )
       216           H   tau( 216) = (  0.4615970  0.6326480  0.8704470  )
       217           H   tau( 217) = (  0.8906000  0.8683550  0.0428467  )
       218           H   tau( 218) = (  0.1178950  0.5456450  0.9550130  )
       219           H   tau( 219) = (  0.8867960  0.9565100  0.1132010  )
       220           H   tau( 220) = (  0.0025771  0.6599030  0.8387660  )
       221           H   tau( 221) = (  0.6448420  0.3559500  0.5250080  )
       222           H   tau( 222) = (  0.4626790  0.7090980  0.8009030  )
       223           H   tau( 223) = (  0.4212320  0.5705350  0.7431690  )
       224           H   tau( 224) = (  0.0710185  0.0745925  0.9300970  )
       225           H   tau( 225) = (  0.6523220  0.8181680  0.9876280  )
       226           H   tau( 226) = (  0.0713844  0.7641140  0.2383440  )
       227           H   tau( 227) = (  0.0618216  0.7697790  0.9030830  )

     number of k points=     8  Marzari-Vanderbilt smearing, width (Ry)=  0.0500
                       cart. coord. in units 2pi/alat
        k(    1) = (   0.0000000   0.0000000   0.0000000), wk =   0.2500000
        k(    2) = (   0.0000000   0.0000000  -0.5000000), wk =   0.2500000
        k(    3) = (   0.0000000  -0.5000000  -0.5000000), wk =   0.2500000
        k(    4) = (  -0.5000000  -0.5000000  -0.5000000), wk =   0.2500000
        k(    5) = (  -0.5000000   0.0000000   0.0000000), wk =   0.2500000
        k(    6) = (   0.0000000  -0.5000000   0.0000000), wk =   0.2500000
        k(    7) = (  -0.5000000   0.0000000   0.5000000), wk =   0.2500000
        k(    8) = (  -0.5000000   0.5000000   0.0000000), wk =   0.2500000

                       cryst. coord.
        k(    1) = (   0.0000000   0.0000000   0.0000000), wk =   0.2500000
        k(    2) = (   0.0000000   0.0000000  -0.5000000), wk =   0.2500000
        k(    3) = (   0.0000000  -0.5000000  -0.5000000), wk =   0.2500000
        k(    4) = (  -0.5000000  -0.5000000  -0.5000000), wk =   0.2500000
        k(    5) = (  -0.5000000   0.0000000   0.0000000), wk =   0.2500000
        k(    6) = (   0.0000000  -0.5000000   0.0000000), wk =   0.2500000
        k(    7) = (  -0.5000000   0.0000000   0.5000000), wk =   0.2500000
        k(    8) = (  -0.5000000   0.5000000   0.0000000), wk =   0.2500000

     Dense  grid:  1078507 G-vectors     FFT dimensions: ( 128, 128, 128)

     Dynamical RAM for                 wfc:     134.24 MB

     Dynamical RAM for     wfc (w. buffer):    1208.12 MB

     Dynamical RAM for           str. fact:       4.11 MB

     Dynamical RAM for           local pot:       0.00 MB

     Dynamical RAM for          nlocal pot:     275.16 MB

     Dynamical RAM for                qrad:       1.75 MB

     Dynamical RAM for          rho,v,vnew:      12.17 MB

     Dynamical RAM for               rhoin:       4.06 MB

     Dynamical RAM for            rho*nmix:      32.91 MB

     Dynamical RAM for           G-vectors:       8.74 MB

     Dynamical RAM for          h,s,v(r/c):     199.57 MB

     Dynamical RAM for          <psi|beta>:       8.52 MB

     Dynamical RAM for                 psi:     536.94 MB

     Dynamical RAM for                hpsi:     536.94 MB

     Dynamical RAM for      wfcinit/wfcrot:     464.23 MB

     Estimated static dynamical RAM per process >       1.53 GB

     Estimated max dynamical RAM per process >       2.78 GB

     Estimated total dynamical RAM >      22.23 GB

     Initial potential from superposition of free atoms

     starting charge  868.88019, renormalised to  869.00000
     Starting wfc are  869 randomized atomic wfcs

     total cpu time spent up to now is      218.8 secs

     Self-consistent Calculation

     iteration #  1     ecut=    42.00 Ry     beta= 0.30
     Davidson diagonalization with overlap
     ethr =  1.00E-02,  avg # of iterations =  3.1

     Threshold (ethr) on eigenvalues was too large:
     Diagonalizing with lowered threshold

     Davidson diagonalization with overlap
     ethr =  8.10E-04,  avg # of iterations =  2.1

     total cpu time spent up to now is     1096.7 secs

     total energy              =   -1700.12665569 Ry
     Harris-Foulkes estimate   =   -1701.27023663 Ry
     estimated scf accuracy    <       6.90226783 Ry

     iteration #  2     ecut=    42.00 Ry     beta= 0.30
     Davidson diagonalization with overlap
     ethr =  7.94E-04,  avg # of iterations =  2.5

     total cpu time spent up to now is     1423.3 secs

     total energy              =   -1699.64032054 Ry
     Harris-Foulkes estimate   =   -1700.28017816 Ry
     estimated scf accuracy    <       2.82905191 Ry

     iteration #  3     ecut=    42.00 Ry     beta= 0.30
     Davidson diagonalization with overlap
     ethr =  3.26E-04,  avg # of iterations =  7.2

     total cpu time spent up to now is     1960.3 secs

     total energy              =   -1699.48107094 Ry
     Harris-Foulkes estimate   =   -1700.03135243 Ry
     estimated scf accuracy    <       2.62556524 Ry

     iteration #  4     ecut=    42.00 Ry     beta= 0.30
     Davidson diagonalization with overlap
     ethr =  3.02E-04,  avg # of iterations =  6.2

     total cpu time spent up to now is     2429.0 secs

     total energy              =   -1699.74802878 Ry
     Harris-Foulkes estimate   =   -1699.82680029 Ry
     estimated scf accuracy    <       0.43802472 Ry

     iteration #  5     ecut=    42.00 Ry     beta= 0.30
     Davidson diagonalization with overlap
     ethr =  5.04E-05,  avg # of iterations =  7.9

     total cpu time spent up to now is     2955.6 secs

     total energy              =   -1699.78122765 Ry
     Harris-Foulkes estimate   =   -1699.80671274 Ry
     estimated scf accuracy    <       0.12392435 Ry

     iteration #  6     ecut=    42.00 Ry     beta= 0.30
     Davidson diagonalization with overlap
     ethr =  1.43E-05,  avg # of iterations = 10.8

     total cpu time spent up to now is     3550.1 secs

     total energy              =   -1699.79363216 Ry
     Harris-Foulkes estimate   =   -1699.80010973 Ry
     estimated scf accuracy    <       0.03783149 Ry

     iteration #  7     ecut=    42.00 Ry     beta= 0.30
     Davidson diagonalization with overlap
     ethr =  4.35E-06,  avg # of iterations = 10.4

     total cpu time spent up to now is     4112.1 secs

     total energy              =   -1699.79697624 Ry
     Harris-Foulkes estimate   =   -1699.79828262 Ry
     estimated scf accuracy    <       0.00927220 Ry

     iteration #  8     ecut=    42.00 Ry     beta= 0.30
     Davidson diagonalization with overlap
     ethr =  1.07E-06,  avg # of iterations =  3.5

     total cpu time spent up to now is     4482.6 secs

     total energy              =   -1699.79771402 Ry
     Harris-Foulkes estimate   =   -1699.79797681 Ry
     estimated scf accuracy    <       0.00180934 Ry

     iteration #  9     ecut=    42.00 Ry     beta= 0.30
     Davidson diagonalization with overlap
     ethr =  2.08E-07,  avg # of iterations =  3.2

     total cpu time spent up to now is     4865.5 secs

     total energy              =   -1699.79781775 Ry
     Harris-Foulkes estimate   =   -1699.79804694 Ry
     estimated scf accuracy    <       0.00113461 Ry

     iteration # 10     ecut=    42.00 Ry     beta= 0.30
     Davidson diagonalization with overlap
     ethr =  1.31E-07,  avg # of iterations =  2.5

     total cpu time spent up to now is     5214.2 secs

     total energy              =   -1699.79794663 Ry
     Harris-Foulkes estimate   =   -1699.79797889 Ry
     estimated scf accuracy    <       0.00020397 Ry

     iteration # 11     ecut=    42.00 Ry     beta= 0.30
     Davidson diagonalization with overlap
     ethr =  2.35E-08,  avg # of iterations =  2.6

     total cpu time spent up to now is     5565.8 secs

     total energy              =   -1699.79797143 Ry
     Harris-Foulkes estimate   =   -1699.79797481 Ry
     estimated scf accuracy    <       0.00002846 Ry

     iteration # 12     ecut=    42.00 Ry     beta= 0.30
     Davidson diagonalization with overlap
     ethr =  3.27E-09,  avg # of iterations =  3.2

     total cpu time spent up to now is     5973.4 secs

     total energy              =   -1699.79797660 Ry
     Harris-Foulkes estimate   =   -1699.79797773 Ry
     estimated scf accuracy    <       0.00001064 Ry

     iteration # 13     ecut=    42.00 Ry     beta= 0.30
     Davidson diagonalization with overlap
     ethr =  1.22E-09,  avg # of iterations =  2.9

     total cpu time spent up to now is     6331.5 secs

     total energy              =   -1699.79797870 Ry
     Harris-Foulkes estimate   =   -1699.79797817 Ry
     estimated scf accuracy    <       0.00000259 Ry

     iteration # 14     ecut=    42.00 Ry     beta= 0.30
     Davidson diagonalization with overlap
     ethr =  2.98E-10,  avg # of iterations =  3.4

     total cpu time spent up to now is     6707.7 secs

     total energy              =   -1699.79797915 Ry
     Harris-Foulkes estimate   =   -1699.79797925 Ry
     estimated scf accuracy    <       0.00000234 Ry

     iteration # 15     ecut=    42.00 Ry     beta= 0.30
     Davidson diagonalization with overlap
     ethr =  2.69E-10,  avg # of iterations =  2.9

     total cpu time spent up to now is     7053.4 secs

     total energy              =   -1699.79797971 Ry
     Harris-Foulkes estimate   =   -1699.79797942 Ry
     estimated scf accuracy    <       0.00000053 Ry

     iteration # 16     ecut=    42.00 Ry     beta= 0.30
     Davidson diagonalization with overlap
     ethr =  6.15E-11,  avg # of iterations =  3.4

     total cpu time spent up to now is     7426.0 secs

     total energy              =   -1699.79797987 Ry
     Harris-Foulkes estimate   =   -1699.79797982 Ry
     estimated scf accuracy    <       0.00000058 Ry

     iteration # 17     ecut=    42.00 Ry     beta= 0.30
     Davidson diagonalization with overlap
     ethr =  6.15E-11,  avg # of iterations =  3.1

     total cpu time spent up to now is     7763.3 secs

     total energy              =   -1699.79797996 Ry
     Harris-Foulkes estimate   =   -1699.79797993 Ry
     estimated scf accuracy    <       0.00000007 Ry

     iteration # 18     ecut=    42.00 Ry     beta= 0.30
     Davidson diagonalization with overlap
     ethr =  7.92E-12,  avg # of iterations =  3.4

     total cpu time spent up to now is     8146.2 secs

     total energy              =   -1699.79797998 Ry
     Harris-Foulkes estimate   =   -1699.79797997 Ry
     estimated scf accuracy    <       0.00000004 Ry

     iteration # 19     ecut=    42.00 Ry     beta= 0.30
     Davidson diagonalization with overlap
     ethr =  4.18E-12,  avg # of iterations =  3.2

     total cpu time spent up to now is     8507.4 secs

     total energy              =   -1699.79797999 Ry
     Harris-Foulkes estimate   =   -1699.79797999 Ry
     estimated scf accuracy    <       0.00000001 Ry

     iteration # 20     ecut=    42.00 Ry     beta= 0.30
     Davidson diagonalization with overlap
     ethr =  1.36E-12,  avg # of iterations =  3.2

     total cpu time spent up to now is     8862.1 secs

     End of self-consistent calculation

          k = 0.0000 0.0000 0.0000 (134683 PWs)   bands (ev):

    -5.8905  -5.5264  -5.4299  -5.4173  -5.4019  -5.3795  -5.3524  -5.1040
    -5.0527  -5.0326  -4.9880  -4.9282  -4.9178  -4.9127  -4.9090  -4.9044
    -4.8876  -4.8509  -4.8407  -4.6022  -4.5574  -4.5316  -4.5079  -4.4826
    -4.4744  -4.4711  -4.4266  -4.0965  -4.0213  -4.0003  -3.9637  -3.9545
    -3.8905  -3.7996  -3.7406  -3.7372  -3.7035  -3.6937  -3.6382  -3.6300
    -3.6049  -3.5958  -3.5883  -3.5832  -3.5802  -3.5780  -3.5736  -3.5700
    -3.5670  -3.5627  -3.5566  -3.5498  -3.5464  -3.5430  -3.5363  -3.5049
    -3.4613  -3.4312  -3.4265  -3.4149  -3.4102  -3.4083  -3.3962  -3.3910
    -3.3880  -3.3833  -3.3773  -3.3749  -3.3730  -3.3698  -3.3692  -3.3636
    -3.3622  -3.3592  -3.3547  -3.3454  -3.3428  -3.3289  -3.2958  -3.0213
    -2.9444  -2.6641  -2.6517  -2.6393  -2.6250  -2.6195  -2.6103  -2.6024
    -2.5908  -2.5849  -2.5747  -2.4457  -2.4068  -1.8639  -1.7936  -1.7648
    -1.7464  -1.7279  -1.7062  -1.6907  -1.6855  -1.6511  -1.6468  -1.6441
    -1.6362  -1.6317  -1.6268  -1.6187  -1.6139  -1.6127  -1.6068  -1.6059
    -1.6044  -1.6038  -1.5991  -1.5944  -1.5895  -1.5859  -1.5830  -1.5800
    -1.5266  -1.3619  -1.2857  -0.9804  -0.9406  -0.8543  -0.8076  -0.7774
    -0.7325  -0.7029  -0.6920  -0.6782  -0.6740  -0.6682  -0.6582  -0.6296
    -0.6227  -0.6049  -0.5808  -0.5595  -0.5479  -0.5300  -0.5194  -0.5165
    -0.5123  -0.5102  -0.5041  -0.5015  -0.4980  -0.4891  -0.4860  -0.4822
    -0.4496  -0.4354  -0.4103  -0.3257  -0.3229  -0.1511  -0.0139   0.2859
     0.3074   0.3223   0.3425   0.3542   0.3847   0.3947   0.4019   0.4147
     0.4341   0.4376   0.4390   0.4430   0.4470   0.4496   0.4526   0.4598
     0.4650   0.4671   0.4684   0.4779   0.4812   0.5678   0.6054   0.6795
     0.7086   0.7444   0.7576   0.7609   0.7939   0.8159   0.9454   1.0119
     1.0155   1.0335   1.0714   1.0801   1.2094   1.3346   1.4260   1.4947
     1.6301   1.6438   1.6824   1.6900   1.6905   1.7076   1.7264   1.7412
     1.7683   1.8367   1.8849   1.9720   2.0499   2.0731   2.1398   2.2201
     2.2960   2.3295   2.3340   2.3435   2.3530   2.3577   2.3749   2.3820
     2.3881   2.3998   2.4107   2.4170   2.4233   2.4257   2.4282   2.4356
     2.4397   2.4485   2.4497   2.4544   2.4560   2.4613   2.4696   2.4772
     2.4802   2.4820   2.4900   2.4944   2.4984   2.5024   2.5067   2.5112
     2.5126   2.5169   2.5222   2.5283   2.5310   2.5384   2.5436   2.5539
     2.5635   2.5763   2.5874   2.6018   2.6040   2.6189   2.6265   2.6403
     2.6656   2.7232   2.7372   2.7816   2.8144   3.0560   3.0718   3.1254
     3.1479   3.1888   3.1932   3.2157   3.2245   3.2318   3.2362   3.2569
     3.2597   3.2613   3.2739   3.2813   3.2838   3.2915   3.3055   3.3085
     3.3151   3.3178   3.3318   3.3349   3.3499   3.3604   3.3701   3.3918
     3.3991   3.4317   3.4459   3.4606   3.5127   3.5586   3.5783   3.5829
     3.5955   3.6008   3.6096   3.6233   3.6426   3.6545   3.6590   3.6604
     3.6676   3.6745   3.6770   3.6787   3.6870   3.6877   3.6969   3.7131
     3.7184   3.7238   3.7325   3.7330   3.7353   3.7443   3.7499   3.7554
     3.7670   3.7701   3.7775   3.7831   3.7899   3.7966   3.8103   3.8151
     3.8220   3.8255   3.8382   3.8543   3.8622   3.8650   3.8968   3.9174
     3.9247   3.9358   3.9433   3.9506   3.9665   3.9798   3.9832   3.9864
     3.9974   4.0027   4.0047   4.0165   4.0209   4.0411   4.0436   4.0443
     4.0534   4.1223   4.1408   4.1709   4.1948   4.2432   4.2529   4.2664
     4.2734   4.2790   4.2840   4.2935   4.2989   4.3097   4.3135   4.3150
     4.3168   4.3325   4.3344   4.3507   4.3531   4.3586   4.3675   4.3788
     4.4153   4.4294   4.4594   4.4703   4.5479   4.7479   4.7892   4.8418
     4.8536   4.8591   4.8754   4.8830   4.9058   4.9272   4.9336   4.9504
     4.9652   4.9844   5.0145   5.0194   5.0303   5.0511   5.0602   5.0696
     5.0800   5.0876   5.0948   5.1030   5.1035   5.1144   5.1232   5.1410
     5.1527   5.1554   5.2191   5.3813   5.4466   5.4689   5.4862   5.4925
     5.4973   5.5011   5.5132   5.5282   5.5347   5.5467   5.5662   5.9046
     6.0363   6.0437   6.0948   6.6973   6.8215   6.8252   6.8297   6.8513
     6.9027   6.9134   6.9184   6.9476   6.9699   7.0890   7.2059   7.4165
     7.5922   7.6199   7.6393   7.6454   7.6607   7.6707   7.6762   7.7129
     7.7166   7.7302   7.7342   7.7429   7.7591   7.7822   7.7858   7.8018
     7.8119   7.8293   7.8328   7.8535   7.8783   7.8801   7.9046   7.9104
     7.9350   7.9514   7.9728   7.9817   8.0019   8.0350   8.0537   8.0768
     8.0800   8.0810   8.0968   8.1091   8.1171   8.1293   8.1332   8.1445
     8.1540   8.1618   8.1754   8.1918   8.2206   8.2426   8.2588   8.2672
     8.2822   8.3008   8.3670   8.3780   8.3977   8.4596   8.4775   8.5384
     8.6079   8.6399   8.6629   8.6827   8.7066   8.7153   8.7475   8.7642
     8.7846   8.7954   8.8011   8.8116   8.8265   8.8310   8.8384   8.8416
     8.8534   8.8575

     occupation numbers 
     1.0000   1.0000   1.0000   1.0000   1.0000   1.0000   1.0000   1.0000
     1.0000   1.0000   1.0000   1.0000   1.0000   1.0000   1.0000   1.0000
     1.0000   1.0000   1.0000   1.0000   1.0000   1.0000   1.0000   1.0000
     1.0000   1.0000   1.0000   1.0000   1.0000   1.0000   1.0000   1.0000
     1.0000   1.0000   1.0000   1.0000   1.0000   1.0000   1.0000   1.0000
     1.0000   1.0000   1.0000   1.0000   1.0000   1.0000   1.0000   1.0000
     1.0000   1.0000   1.0000   1.0000   1.0000   1.0000   1.0000   1.0000
     1.0000   1.0000   1.0000   1.0000   1.0000   1.0000   1.0000   1.0000
     1.0000   1.0000   1.0000   1.0000   1.0000   1.0000   1.0000   1.0000
     1.0000   1.0000   1.0000   1.0000   1.0000   1.0000   1.0000   1.0000
     1.0000   1.0000   1.0000   1.0000   1.0000   1.0000   1.0000   1.0000
     1.0000   1.0000   1.0000   1.0000   1.0000   1.0000   1.0000   1.0000
     1.0000   1.0000   1.0000   1.0000   1.0000   1.0000   1.0000   1.0000
     1.0000   1.0000   1.0000   1.0000   1.0000   1.0000   1.0000   1.0000
     1.0000   1.0000   1.0000   1.0000   1.0000   1.0000   1.0000   1.0000
     1.0000   1.0000   1.0000   1.0000   1.0000   1.0000   1.0000   1.0000
     1.0000   1.0000   1.0000   1.0000   1.0000   1.0000   1.0000   1.0000
     1.0000   1.0000   1.0000   1.0000   1.0000   1.0000   1.0000   1.0000
     1.0000   1.0000   1.0000   1.0000   1.0000   1.0000   1.0000   1.0000
     1.0000   1.0000   1.0000   1.0000   1.0000   1.0000   1.0000   1.0000
     1.0000   1.0000   1.0000   1.0000   1.0000   1.0000   1.0000   1.0000
     1.0000   1.0000   1.0000   1.0000   1.0000   1.0000   1.0000   1.0000
     1.0000   1.0000   1.0000   1.0000   1.0000   1.0000   1.0000   1.0000
     1.0000   1.0000   1.0000   1.0000   1.0000   1.0000   1.0000   1.0000
     1.0000   1.0000   1.0000   1.0000   1.0000   1.0000   1.0000   1.0000
     1.0000   1.0000   1.0000   1.0000   1.0000   1.0000   1.0000   1.0000
     1.0000   1.0000   1.0000   1.0000   1.0000   1.0000   1.0000   1.0000
     1.0000   1.0000   1.0000   1.0000   1.0000   1.0000   1.0000   1.0000
     1.0000   1.0000   1.0000   1.0000   1.0000   1.0000   1.0000   1.0000
     1.0000   1.0000   1.0000   1.0000   1.0000   1.0000   1.0000   1.0000
     1.0000   1.0000   1.0000   1.0000   1.0000   1.0000   1.0000   1.0000
     1.0000   1.0000   1.0000   1.0000   1.0000   1.0000   1.0000   1.0000
     1.0000   1.0000   1.0000   1.0000   1.0000   1.0000   1.0000   1.0000
     1.0000   1.0000   1.0000   1.0000   1.0000   1.0000   1.0000   1.0000
     1.0000   1.0000   1.0000   1.0000   1.0000   1.0000   1.0000   1.0000
     1.0000   1.0000   1.0000   1.0000   1.0000   1.0000   1.0000   1.0000
     1.0000   1.0000   1.0000   1.0000   1.0000   1.0000   1.0000   1.0000
     1.0000   1.0001   1.0001   1.0001   1.0001   1.0001   1.0002   1.0002
     1.0002   1.0002   1.0002   1.0002   1.0003   1.0003   1.0003   1.0003
     1.0003   1.0004   1.0004   1.0004   1.0004   1.0004   1.0004   1.0005
     1.0005   1.0005   1.0006   1.0006   1.0006   1.0006   1.0006   1.0007
     1.0007   1.0007   1.0008   1.0008   1.0008   1.0009   1.0010   1.0010
     1.0010   1.0011   1.0012   1.0013   1.0014   1.0014   1.0017   1.0019
     1.0020   1.0022   1.0023   1.0024   1.0026   1.0029   1.0029   1.0030
     1.0032   1.0033   1.0033   1.0036   1.0036   1.0041   1.0042   1.0042
     1.0044   1.0064   1.0071   1.0083   1.0094   1.0119   1.0124   1.0133
     1.0137   1.0141   1.0144   1.0150   1.0154   1.0161   1.0164   1.0165
     1.0167   1.0178   1.0180   1.0193   1.0195   1.0200   1.0207   1.0217
     1.0251   1.0265   1.0297   1.0309   1.0402   1.0672   1.0722   1.0777
     1.0787   1.0792   1.0804   1.0809   1.0822   1.0829   1.0831   1.0833
     1.0833   1.0828   1.0813   1.0809   1.0800   1.0778   1.0767   1.0753
     1.0737   1.0724   1.0711   1.0695   1.0694   1.0671   1.0651   1.0606
     1.0574   1.0566   1.0342   0.9414   0.8898   0.8704   0.8549   0.8492
     0.8447   0.8412   0.8297   0.8154   0.8091   0.7972   0.7776   0.4129
     0.2889   0.2826   0.2413   0.0172   0.0083   0.0081   0.0079   0.0069
     0.0050   0.0046   0.0045   0.0037   0.0032   0.0014   0.0006   0.0001
     0.0000   0.0000   0.0000   0.0000   0.0000   0.0000   0.0000   0.0000
     0.0000   0.0000   0.0000   0.0000   0.0000   0.0000   0.0000   0.0000
     0.0000   0.0000   0.0000   0.0000   0.0000   0.0000   0.0000   0.0000
     0.0000   0.0000   0.0000   0.0000   0.0000   0.0000   0.0000   0.0000
     0.0000   0.0000   0.0000   0.0000   0.0000   0.0000   0.0000   0.0000
     0.0000   0.0000   0.0000   0.0000   0.0000   0.0000   0.0000   0.0000
     0.0000   0.0000   0.0000   0.0000   0.0000   0.0000   0.0000   0.0000
     0.0000   0.0000   0.0000   0.0000   0.0000   0.0000   0.0000   0.0000
     0.0000   0.0000   0.0000   0.0000   0.0000   0.0000   0.0000   0.0000
     0.0000   0.0000

          k = 0.0000 0.0000-0.5000 (134800 PWs)   bands (ev):

    -5.7927  -5.7527  -5.4249  -5.3492  -5.3306  -5.2889  -5.2698  -5.2576
    -5.2506  -5.2317  -4.9575  -4.9226  -4.8623  -4.8539  -4.8247  -4.8062
    -4.7964  -4.7836  -4.7691  -4.7166  -4.5035  -4.4275  -4.3838  -4.3681
    -4.3376  -4.3338  -4.3068  -4.2941  -4.1286  -4.0529  -4.0364  -4.0030
    -3.9970  -3.9839  -3.9741  -3.9621  -3.9496  -3.9365  -3.8826  -3.8728
    -3.8536  -3.8294  -3.8032  -3.7562  -3.6541  -3.6197  -3.5811  -3.5628
    -3.5532  -3.5427  -3.5337  -3.5236  -3.5148  -3.5099  -3.5064  -3.5011
    -3.4985  -3.4686  -3.4417  -3.3599  -3.3255  -3.3125  -3.3056  -3.2985
    -3.2870  -3.2824  -3.2516  -3.2450  -3.2040  -3.1538  -3.1362  -3.1278
    -3.1252  -3.0959  -3.0652  -3.0410  -2.9569  -2.9053  -2.8598  -2.8544
    -2.8464  -2.8268  -2.8179  -2.8126  -2.7758  -2.7273  -2.6701  -2.6648
    -2.6530  -2.6397  -2.6325  -2.6298  -2.4725  -2.4216  -2.1155  -2.1005
    -2.0942  -2.0851  -2.0754  -2.0617  -2.0225  -1.9710  -1.7674  -1.7415
    -1.7190  -1.7032  -1.6882  -1.6612  -1.6446  -1.6168  -1.5972  -1.5530
    -1.5143  -1.4819  -1.2719  -1.2485  -1.2300  -1.1999  -1.1687  -1.1499
    -1.1196  -1.0724  -0.9967  -0.9555  -0.8957  -0.8692  -0.8167  -0.7783
    -0.7560  -0.7535  -0.7352  -0.7242  -0.7198  -0.6862  -0.6729  -0.6418
    -0.6275  -0.6139  -0.5751  -0.5700  -0.5536  -0.5422  -0.5401  -0.5296
    -0.4365  -0.4097  -0.3828  -0.3193  -0.2473  -0.2457  -0.2113  -0.1954
    -0.1462  -0.1270  -0.1143  -0.1059  -0.0889  -0.0751  -0.0410  -0.0221
    -0.0198  -0.0059   0.0089   0.0190   0.0268   0.0344   0.0440   0.0498
     0.0554   0.0636   0.0713   0.0845   0.0895   0.0979   0.0996   0.1345
     0.1605   0.2271   0.4372   0.5965   0.7896   0.8317   0.8361   0.8765
     0.8815   0.8925   0.9580   1.0141   1.0891   1.1284   1.2072   1.2815
     1.3376   1.3598   1.3973   1.4148   1.4365   1.4958   1.5077   1.5967
     1.6237   1.6451   1.6762   1.7019   1.7322   1.7907   1.7975   1.8356
     1.8498   1.8585   1.8740   1.8774   1.9058   1.9206   1.9311   1.9544
     1.9760   1.9770   2.0217   2.0322   2.0460   2.0875   2.1173   2.1260
     2.1521   2.1795   2.2063   2.2140   2.2205   2.2438   2.2632   2.2803
     2.2997   2.3177   2.3227   2.3337   2.3462   2.3701   2.3839   2.4286
     2.5346   2.5605   2.5804   2.6042   2.6502   2.6802   2.7445   2.7555
     2.7751   2.8147   2.8282   2.8353   2.8416   2.8521   2.8657   2.8711
     2.8802   2.8832   2.8914   2.8957   2.9008   2.9085   2.9188   2.9245
     2.9310   2.9401   2.9414   2.9492   2.9557   2.9653   2.9687   2.9824
     2.9845   2.9962   3.0043   3.0057   3.0244   3.0434   3.0579   3.0668
     3.0818   3.1075   3.1659   3.1742   3.1959   3.2161   3.2480   3.2620
     3.2695   3.2749   3.2774   3.2894   3.2983   3.3099   3.3128   3.3200
     3.3255   3.3349   3.3464   3.3492   3.3521   3.3589   3.3649   3.3749
     3.3845   3.3996   3.4105   3.4316   3.4514   3.4690   3.4726   3.4833
     3.4989   3.5139   3.5296   3.5557   3.5792   3.6122   3.6358   3.6486
     3.6642   3.6906   3.6970   3.7088   3.7232   3.7857   3.8144   3.8423
     3.8630   3.8970   3.9060   3.9156   3.9231   3.9401   3.9495   3.9550
     3.9558   3.9696   3.9756   3.9793   3.9889   3.9921   4.0060   4.0195
     4.0226   4.0298   4.0332   4.0464   4.0531   4.0625   4.0695   4.0740
     4.0787   4.0842   4.1147   4.1291   4.1461   4.1596   4.1873   4.1907
     4.2186   4.2407   4.2741   4.2988   4.3207   4.3454   4.3506   4.3764
     4.3841   4.3925   4.3969   4.3979   4.4164   4.4195   4.4269   4.4309
     4.4323   4.4441   4.4531   4.4582   4.4674   4.4793   4.4811   4.4933
     4.5045   4.5185   4.5339   4.5363   4.5463   4.5672   4.5796   4.6166
     4.6365   4.6428   4.6568   4.6895   4.6930   4.6992   4.7132   4.7295
     4.7350   4.7483   4.7771   4.8101   4.8187   4.8322   4.8385   4.8703
     4.8772   4.9639   5.1039   5.1671   5.2687   5.3155   5.3369   5.3484
     5.3508   5.3610   5.3621   5.3705   5.3750   5.3835   5.3955   5.4004
     5.4094   5.4161   5.4238   5.4508   5.4640   5.4737   5.6078   5.6305
     5.6721   5.6814   6.0285   6.7424   6.7855   7.0066   7.2824   7.2960
     7.3254   7.3269   7.3725   7.3786   7.4218   7.4315   7.4414   7.4649
     7.4837   7.5116   7.5234   7.5391   7.5555   7.5607   7.5864   7.6174
     7.6829   7.6974   7.7146   7.7423   7.7581   7.7907   7.8146   7.8318
     7.8476   7.8714   7.8807   7.8871   7.9076   7.9175   7.9493   7.9563
     8.0173   8.0444   8.0659   8.0966   8.1124   8.1622   8.1873   8.2065
     8.2258   8.2418   8.2543   8.2719   8.2796   8.2902   8.2993   8.3160
     8.3250   8.3367   8.3389   8.3468   8.3551   8.3698   8.3760   8.3827
     8.3932   8.4015   8.4084   8.4151   8.4209   8.4354   8.4461   8.4568
     8.4634   8.4683   8.4830   8.4935   8.5000   8.5129   8.5163   8.5212
     8.5358   8.5415   8.5562   8.5591   8.5711   8.5763   8.5866   8.5912
     8.6020   8.6048

     occupation numbers 
     1.0000   1.0000   1.0000   1.0000   1.0000   1.0000   1.0000   1.0000
     1.0000   1.0000   1.0000   1.0000   1.0000   1.0000   1.0000   1.0000
     1.0000   1.0000   1.0000   1.0000   1.0000   1.0000   1.0000   1.0000
     1.0000   1.0000   1.0000   1.0000   1.0000   1.0000   1.0000   1.0000
     1.0000   1.0000   1.0000   1.0000   1.0000   1.0000   1.0000   1.0000
     1.0000   1.0000   1.0000   1.0000   1.0000   1.0000   1.0000   1.0000
     1.0000   1.0000   1.0000   1.0000   1.0000   1.0000   1.0000   1.0000
     1.0000   1.0000   1.0000   1.0000   1.0000   1.0000   1.0000   1.0000
     1.0000   1.0000   1.0000   1.0000   1.0000   1.0000   1.0000   1.0000
     1.0000   1.0000   1.0000   1.0000   1.0000   1.0000   1.0000   1.0000
     1.0000   1.0000   1.0000   1.0000   1.0000   1.0000   1.0000   1.0000
     1.0000   1.0000   1.0000   1.0000   1.0000   1.0000   1.0000   1.0000
     1.0000   1.0000   1.0000   1.0000   1.0000   1.0000   1.0000   1.0000
     1.0000   1.0000   1.0000   1.0000   1.0000   1.0000   1.0000   1.0000
     1.0000   1.0000   1.0000   1.0000   1.0000   1.0000   1.0000   1.0000
     1.0000   1.0000   1.0000   1.0000   1.0000   1.0000   1.0000   1.0000
     1.0000   1.0000   1.0000   1.0000   1.0000   1.0000   1.0000   1.0000
     1.0000   1.0000   1.0000   1.0000   1.0000   1.0000   1.0000   1.0000
     1.0000   1.0000   1.0000   1.0000   1.0000   1.0000   1.0000   1.0000
     1.0000   1.0000   1.0000   1.0000   1.0000   1.0000   1.0000   1.0000
     1.0000   1.0000   1.0000   1.0000   1.0000   1.0000   1.0000   1.0000
     1.0000   1.0000   1.0000   1.0000   1.0000   1.0000   1.0000   1.0000
     1.0000   1.0000   1.0000   1.0000   1.0000   1.0000   1.0000   1.0000
     1.0000   1.0000   1.0000   1.0000   1.0000   1.0000   1.0000   1.0000
     1.0000   1.0000   1.0000   1.0000   1.0000   1.0000   1.0000   1.0000
     1.0000   1.0000   1.0000   1.0000   1.0000   1.0000   1.0000   1.0000
     1.0000   1.0000   1.0000   1.0000   1.0000   1.0000   1.0000   1.0000
     1.0000   1.0000   1.0000   1.0000   1.0000   1.0000   1.0000   1.0000
     1.0000   1.0000   1.0000   1.0000   1.0000   1.0000   1.0000   1.0000
     1.0000   1.0000   1.0000   1.0000   1.0000   1.0000   1.0000   1.0000
     1.0000   1.0000   1.0000   1.0000   1.0000   1.0000   1.0000   1.0000
     1.0000   1.0000   1.0000   1.0000   1.0000   1.0000   1.0000   1.0000
     1.0000   1.0000   1.0000   1.0000   1.0000   1.0000   1.0000   1.0000
     1.0000   1.0000   1.0000   1.0000   1.0000   1.0000   1.0000   1.0000
     1.0000   1.0000   1.0000   1.0000   1.0000   1.0000   1.0000   1.0000
     1.0000   1.0000   1.0000   1.0000   1.0000   1.0000   1.0000   1.0000
     1.0000   1.0000   1.0000   1.0000   1.0000   1.0000   1.0000   1.0000
     1.0000   1.0000   1.0000   1.0000   1.0000   1.0000   1.0000   1.0000
     1.0000   1.0000   1.0000   1.0001   1.0001   1.0001   1.0001   1.0001
     1.0001   1.0001   1.0001   1.0001   1.0002   1.0002   1.0003   1.0003
     1.0003   1.0004   1.0004   1.0005   1.0005   1.0008   1.0010   1.0012
     1.0014   1.0017   1.0018   1.0019   1.0020   1.0022   1.0024   1.0025
     1.0025   1.0027   1.0028   1.0028   1.0030   1.0031   1.0033   1.0036
     1.0037   1.0038   1.0039   1.0042   1.0044   1.0046   1.0048   1.0049
     1.0051   1.0052   1.0062   1.0067   1.0073   1.0078   1.0090   1.0092
     1.0106   1.0117   1.0137   1.0154   1.0170   1.0189   1.0193   1.0215
     1.0222   1.0229   1.0233   1.0234   1.0252   1.0255   1.0263   1.0267
     1.0268   1.0280   1.0290   1.0295   1.0305   1.0319   1.0321   1.0335
     1.0348   1.0365   1.0384   1.0387   1.0400   1.0427   1.0443   1.0493
     1.0520   1.0529   1.0548   1.0594   1.0598   1.0607   1.0626   1.0648
     1.0655   1.0672   1.0708   1.0745   1.0754   1.0768   1.0774   1.0800
     1.0805   1.0833   1.0693   1.0531   1.0114   0.9853   0.9720   0.9644
     0.9628   0.9558   0.9551   0.9492   0.9460   0.9398   0.9308   0.9271
     0.9202   0.9148   0.9087   0.8862   0.8748   0.8662   0.7345   0.7102
     0.6651   0.6548   0.2956   0.0133   0.0103   0.0025   0.0003   0.0003
     0.0002   0.0002   0.0001   0.0001   0.0001   0.0001   0.0001   0.0001
     0.0001   0.0000   0.0000   0.0000   0.0000   0.0000   0.0000   0.0000
     0.0000   0.0000   0.0000   0.0000   0.0000   0.0000   0.0000   0.0000
     0.0000   0.0000   0.0000   0.0000   0.0000   0.0000   0.0000   0.0000
     0.0000   0.0000   0.0000   0.0000   0.0000   0.0000   0.0000   0.0000
     0.0000   0.0000   0.0000   0.0000   0.0000   0.0000   0.0000   0.0000
     0.0000   0.0000   0.0000   0.0000   0.0000   0.0000   0.0000   0.0000
     0.0000   0.0000   0.0000   0.0000   0.0000   0.0000   0.0000   0.0000
     0.0000   0.0000   0.0000   0.0000   0.0000   0.0000   0.0000   0.0000
     0.0000   0.0000   0.0000   0.0000   0.0000   0.0000   0.0000   0.0000
     0.0000   0.0000

          k = 0.0000-0.5000-0.5000 (134912 PWs)   bands (ev):

    -5.7046  -5.6488  -5.6418  -5.6246  -5.3168  -5.2108  -5.2007  -5.1942
    -5.1616  -5.1444  -5.1392  -5.1002  -4.7987  -4.7882  -4.7551  -4.6875
    -4.6729  -4.6688  -4.6546  -4.6394  -4.4115  -4.3940  -4.3676  -4.3103
    -4.2680  -4.2590  -4.2570  -4.2534  -4.2512  -4.2461  -4.2419  -4.2379
    -4.2320  -4.2265  -4.2110  -4.1306  -3.9227  -3.8722  -3.8574  -3.8227
    -3.8078  -3.8000  -3.7898  -3.7733  -3.7720  -3.7623  -3.7488  -3.7091
    -3.6478  -3.6278  -3.6222  -3.6096  -3.6054  -3.6042  -3.5416  -3.5033
    -3.2504  -3.2381  -3.2055  -3.1997  -3.1824  -3.1651  -3.1613  -3.1594
    -3.1573  -3.1559  -3.1491  -3.1475  -3.1368  -3.1237  -3.0849  -3.0342
    -2.9622  -2.8907  -2.8774  -2.8671  -2.8589  -2.8509  -2.8291  -2.7787
    -2.7360  -2.7137  -2.6954  -2.6925  -2.6821  -2.6804  -2.6764  -2.6687
    -2.6677  -2.6634  -2.6536  -2.6460  -2.6454  -2.6370  -2.4984  -2.4310
    -2.3998  -2.3750  -2.3652  -2.3508  -2.3383  -2.3177  -2.2159  -2.0905
    -1.8911  -1.8711  -1.8421  -1.7516  -1.5151  -1.4854  -1.4695  -1.3984
    -1.1589  -1.0265  -0.9766  -0.9035  -0.8668  -0.8561  -0.8427  -0.8296
    -0.8270  -0.8018  -0.7835  -0.7624  -0.7421  -0.6925  -0.6791  -0.6782
    -0.6574  -0.6526  -0.6429  -0.6335  -0.6326  -0.6280  -0.6200  -0.6149
    -0.6110  -0.5984  -0.5804  -0.5745  -0.5607  -0.5457  -0.5422  -0.5298
    -0.5243  -0.5109  -0.5010  -0.4819  -0.4805  -0.4739  -0.4599  -0.4567
    -0.4503  -0.4448  -0.4409  -0.4240  -0.4185  -0.4173  -0.4085  -0.4003
    -0.3951  -0.3846  -0.3716  -0.3618  -0.2455  -0.2051   0.0544   0.2038
     0.4198   0.4700   0.4991   0.5292   0.5682   0.5924   0.6065   0.6136
     0.6267   0.6422   0.6487   0.6791   0.6822   0.7174   0.7225   0.7800
     0.7963   0.8184   0.8205   0.8249   0.8293   0.8364   0.8415   0.8606
     0.8640   0.8981   0.9740   1.2583   1.2948   1.4418   1.5036   1.6884
     1.7572   1.8237   1.8872   1.8971   1.9303   1.9384   1.9703   1.9938
     2.0199   2.0217   2.0599   2.1075   2.1243   2.1367   2.1461   2.1498
     2.1532   2.1579   2.1622   2.1630   2.1690   2.1775   2.1944   2.2037
     2.2116   2.2189   2.2313   2.2424   2.2597   2.2788   2.2858   2.3023
     2.3121   2.3197   2.3662   2.3756   2.3948   2.4123   2.4236   2.4405
     2.4582   2.4713   2.4932   2.4999   2.5051   2.5248   2.5355   2.5375
     2.5415   2.5667   2.5673   2.6065   2.6221   2.6359   2.6531   2.6689
     2.6806   2.7293   2.7432   2.7718   2.8189   2.8303   2.8741   2.9121
     2.9160   2.9259   2.9579   2.9725   2.9816   3.0040   3.0110   3.0137
     3.0272   3.0288   3.0375   3.0511   3.0567   3.0776   3.0825   3.0997
     3.1054   3.1158   3.1217   3.1346   3.1457   3.1736   3.1822   3.1904
     3.2106   3.2133   3.2280   3.2613   3.2882   3.3674   3.4015   3.4092
     3.4118   3.4231   3.4344   3.4401   3.4504   3.4607   3.4634   3.4756
     3.4775   3.4842   3.4897   3.5031   3.5088   3.5198   3.5262   3.5407
     3.5561   3.5726   3.5803   3.5978   3.6062   3.6164   3.6377   3.6419
     3.6504   3.6638   3.6659   3.6767   3.6882   3.7067   3.7165   3.7245
     3.7338   3.7590   3.7705   3.7861   3.8000   3.8102   3.8273   3.8320
     3.8387   3.8433   3.8641   3.8815   3.8913   3.9169   3.9393   3.9491
     4.0161   4.0382   4.0535   4.0741   4.0806   4.0946   4.1025   4.1102
     4.1138   4.1244   4.1262   4.1361   4.1374   4.1484   4.1838   4.1854
     4.2100   4.2129   4.2312   4.2465   4.2556   4.2611   4.3240   4.3746
     4.4050   4.4152   4.4269   4.4456   4.4605   4.4618   4.4758   4.4919
     4.4975   4.5237   4.5480   4.5748   4.6476   4.6760   4.6947   4.7124
     4.7336   4.7400   4.7458   4.7468   4.7592   4.7623   4.7669   4.7699
     4.7800   4.7814   4.7891   4.7987   4.8113   4.8192   4.8268   4.8355
     4.8417   4.8580   4.8603   4.8773   4.8825   4.8883   4.8934   4.9238
     4.9353   4.9577   4.9648   4.9724   4.9827   5.0050   5.0135   5.0376
     5.0523   5.0962   5.1219   5.1377   5.1551   5.1603   5.1777   5.1840
     5.1968   5.2599   5.3126   5.3324   5.3547   5.3863   5.8853   5.9066
     5.9229   5.9670   6.0592   6.8723   7.0059   7.1170   7.1966   7.2212
     7.2901   7.2951   7.3549   7.3674   7.3790   7.4085   7.4382   7.4659
     7.4802   7.5049   7.5222   7.5441   7.5806   7.6542   7.6865   7.6909
     7.7019   7.7239   7.7555   7.7890   7.8384   7.8435   7.8578   7.8713
     7.8797   7.8863   7.8965   7.8990   7.9078   7.9191   7.9234   7.9395
     7.9426   7.9601   7.9661   7.9771   7.9857   8.0003   8.0149   8.0294
     8.0426   8.0610   8.0759   8.0909   8.1047   8.1244   8.1415   8.1645
     8.1689   8.1847   8.2203   8.2443   8.2519   8.2719   8.3300   8.4236
     8.4368   8.4599   8.4713   8.4837   8.5012   8.5149   8.5316   8.5362
     8.5442   8.5549   8.5688   8.6193   8.6242   8.6360   8.6521   8.6551
     8.6661   8.6701   8.6756   8.6803   8.6841   8.6915   8.6981   8.6992
     8.7044   8.7065

     occupation numbers 
     1.0000   1.0000   1.0000   1.0000   1.0000   1.0000   1.0000   1.0000
     1.0000   1.0000   1.0000   1.0000   1.0000   1.0000   1.0000   1.0000
     1.0000   1.0000   1.0000   1.0000   1.0000   1.0000   1.0000   1.0000
     1.0000   1.0000   1.0000   1.0000   1.0000   1.0000   1.0000   1.0000
     1.0000   1.0000   1.0000   1.0000   1.0000   1.0000   1.0000   1.0000
     1.0000   1.0000   1.0000   1.0000   1.0000   1.0000   1.0000   1.0000
     1.0000   1.0000   1.0000   1.0000   1.0000   1.0000   1.0000   1.0000
     1.0000   1.0000   1.0000   1.0000   1.0000   1.0000   1.0000   1.0000
     1.0000   1.0000   1.0000   1.0000   1.0000   1.0000   1.0000   1.0000
     1.0000   1.0000   1.0000   1.0000   1.0000   1.0000   1.0000   1.0000
     1.0000   1.0000   1.0000   1.0000   1.0000   1.0000   1.0000   1.0000
     1.0000   1.0000   1.0000   1.0000   1.0000   1.0000   1.0000   1.0000
     1.0000   1.0000   1.0000   1.0000   1.0000   1.0000   1.0000   1.0000
     1.0000   1.0000   1.0000   1.0000   1.0000   1.0000   1.0000   1.0000
     1.0000   1.0000   1.0000   1.0000   1.0000   1.0000   1.0000   1.0000
     1.0000   1.0000   1.0000   1.0000   1.0000   1.0000   1.0000   1.0000
     1.0000   1.0000   1.0000   1.0000   1.0000   1.0000   1.0000   1.0000
     1.0000   1.0000   1.0000   1.0000   1.0000   1.0000   1.0000   1.0000
     1.0000   1.0000   1.0000   1.0000   1.0000   1.0000   1.0000   1.0000
     1.0000   1.0000   1.0000   1.0000   1.0000   1.0000   1.0000   1.0000
     1.0000   1.0000   1.0000   1.0000   1.0000   1.0000   1.0000   1.0000
     1.0000   1.0000   1.0000   1.0000   1.0000   1.0000   1.0000   1.0000
     1.0000   1.0000   1.0000   1.0000   1.0000   1.0000   1.0000   1.0000
     1.0000   1.0000   1.0000   1.0000   1.0000   1.0000   1.0000   1.0000
     1.0000   1.0000   1.0000   1.0000   1.0000   1.0000   1.0000   1.0000
     1.0000   1.0000   1.0000   1.0000   1.0000   1.0000   1.0000   1.0000
     1.0000   1.0000   1.0000   1.0000   1.0000   1.0000   1.0000   1.0000
     1.0000   1.0000   1.0000   1.0000   1.0000   1.0000   1.0000   1.0000
     1.0000   1.0000   1.0000   1.0000   1.0000   1.0000   1.0000   1.0000
     1.0000   1.0000   1.0000   1.0000   1.0000   1.0000   1.0000   1.0000
     1.0000   1.0000   1.0000   1.0000   1.0000   1.0000   1.0000   1.0000
     1.0000   1.0000   1.0000   1.0000   1.0000   1.0000   1.0000   1.0000
     1.0000   1.0000   1.0000   1.0000   1.0000   1.0000   1.0000   1.0000
     1.0000   1.0000   1.0000   1.0000   1.0000   1.0000   1.0000   1.0000
     1.0000   1.0000   1.0000   1.0000   1.0000   1.0000   1.0000   1.0000
     1.0000   1.0000   1.0000   1.0000   1.0000   1.0000   1.0000   1.0000
     1.0000   1.0000   1.0000   1.0000   1.0000   1.0000   1.0000   1.0000
     1.0000   1.0000   1.0001   1.0001   1.0001   1.0001   1.0001   1.0001
     1.0001   1.0001   1.0001   1.0001   1.0001   1.0001   1.0001   1.0001
     1.0001   1.0002   1.0002   1.0002   1.0002   1.0002   1.0003   1.0003
     1.0003   1.0003   1.0003   1.0004   1.0004   1.0005   1.0005   1.0005
     1.0006   1.0007   1.0007   1.0008   1.0009   1.0010   1.0011   1.0011
     1.0012   1.0012   1.0014   1.0015   1.0016   1.0019   1.0022   1.0024
     1.0035   1.0040   1.0044   1.0049   1.0051   1.0055   1.0058   1.0060
     1.0061   1.0065   1.0066   1.0069   1.0070   1.0074   1.0089   1.0089
     1.0101   1.0103   1.0112   1.0121   1.0126   1.0129   1.0172   1.0213
     1.0241   1.0251   1.0263   1.0282   1.0298   1.0299   1.0315   1.0333
     1.0340   1.0371   1.0402   1.0437   1.0536   1.0575   1.0601   1.0625
     1.0653   1.0661   1.0669   1.0670   1.0686   1.0690   1.0696   1.0699
     1.0711   1.0713   1.0722   1.0733   1.0747   1.0755   1.0763   1.0771
     1.0777   1.0791   1.0793   1.0805   1.0809   1.0812   1.0815   1.0828
     1.0831   1.0833   1.0833   1.0831   1.0829   1.0819   1.0814   1.0793
     1.0777   1.0708   1.0654   1.0615   1.0567   1.0551   1.0496   1.0475
     1.0429   1.0158   0.9871   0.9749   0.9602   0.9377   0.4327   0.4109
     0.3944   0.3514   0.2697   0.0060   0.0025   0.0011   0.0006   0.0005
     0.0003   0.0003   0.0002   0.0002   0.0001   0.0001   0.0001   0.0001
     0.0001   0.0000   0.0000   0.0000   0.0000   0.0000   0.0000   0.0000
     0.0000   0.0000   0.0000   0.0000   0.0000   0.0000   0.0000   0.0000
     0.0000   0.0000   0.0000   0.0000   0.0000   0.0000   0.0000   0.0000
     0.0000   0.0000   0.0000   0.0000   0.0000   0.0000   0.0000   0.0000
     0.0000   0.0000   0.0000   0.0000   0.0000   0.0000   0.0000   0.0000
     0.0000   0.0000   0.0000   0.0000   0.0000   0.0000   0.0000   0.0000
     0.0000   0.0000   0.0000   0.0000   0.0000   0.0000   0.0000   0.0000
     0.0000   0.0000   0.0000   0.0000   0.0000   0.0000   0.0000   0.0000
     0.0000   0.0000   0.0000   0.0000   0.0000   0.0000   0.0000   0.0000
     0.0000   0.0000

          k =-0.5000-0.5000-0.5000 (134688 PWs)   bands (ev):

    -5.6533  -5.5521  -5.5487  -5.5296  -5.5106  -5.5017  -5.4954  -5.4755
    -4.9128  -4.8035  -4.7632  -4.7334  -4.6433  -4.6191  -4.5887  -4.5854
    -4.5812  -4.5763  -4.5718  -4.5678  -4.5666  -4.5625  -4.5622  -4.5592
    -4.5564  -4.5510  -4.5463  -4.5337  -4.5215  -4.4917  -4.4426  -4.3041
    -3.9805  -3.9141  -3.8929  -3.8419  -3.8360  -3.7969  -3.7854  -3.7745
    -3.7741  -3.7697  -3.7633  -3.7617  -3.7606  -3.7570  -3.7526  -3.7483
    -3.7418  -3.7401  -3.7283  -3.7261  -3.7090  -3.6853  -3.6152  -3.5784
    -3.5443  -3.5341  -3.4805  -3.4635  -3.0362  -2.9613  -2.9278  -2.8862
    -2.8485  -2.8452  -2.8294  -2.8171  -2.8114  -2.8072  -2.8057  -2.8029
    -2.8009  -2.7972  -2.7957  -2.7920  -2.7828  -2.7786  -2.7783  -2.7693
    -2.7669  -2.7275  -2.7021  -2.6871  -2.6540  -2.6455  -2.6278  -2.6214
    -2.6138  -2.6120  -2.6096  -2.6079  -2.6051  -2.6026  -2.5995  -2.5963
    -2.5890  -2.5870  -2.5847  -2.5816  -2.5779  -2.5764  -2.5757  -2.5680
    -2.5600  -2.5024  -2.0710  -2.0270  -1.1952  -1.1572  -1.0867  -0.9836
    -0.9608  -0.8929  -0.8541  -0.8313  -0.8109  -0.7899  -0.7846  -0.7798
[...]
     atom   35 type  1   force =    -0.00000220    0.00000175    0.00000560
     atom   36 type  1   force =    -0.00000325   -0.00000546    0.00000723
     atom   37 type  1   force =    -0.00000481   -0.00000518    0.00000366
     atom   38 type  1   force =     0.00000001   -0.00000296    0.00000567
     atom   39 type  1   force =    -0.00000139   -0.00000231   -0.00000072
     atom   40 type  1   force =    -0.00000126   -0.00000697    0.00000001
     atom   41 type  1   force =    -0.00000211   -0.00000879   -0.00000396
     atom   42 type  1   force =    -0.00000256   -0.00000659   -0.00000285
     atom   43 type  1   force =     0.00000163   -0.00000309   -0.00000336
     atom   44 type  1   force =    -0.00000131   -0.00000645   -0.00000609
     atom   45 type  1   force =     0.00000000   -0.00000731   -0.00000383
     atom   46 type  1   force =    -0.00000135   -0.00001072   -0.00000717
     atom   47 type  1   force =     0.00000098   -0.00000606   -0.00000588
     atom   48 type  1   force =    -0.00000070   -0.00000216   -0.00000081
     atom   49 type  1   force =     0.00000213    0.00000121    0.00000216
     atom   50 type  1   force =     0.00000487    0.00000499   -0.00000256
     atom   51 type  1   force =     0.00000515    0.00000409   -0.00000108
     atom   52 type  1   force =     0.00000298    0.00000031    0.00000430
     atom   53 type  1   force =     0.00000089    0.00000274    0.00000506
     atom   54 type  1   force =     0.00000008    0.00000345    0.00000679
     atom   55 type  1   force =     0.00000019    0.00000367    0.00000845
     atom   56 type  1   force =     0.00000049    0.00000100    0.00000878
     atom   57 type  1   force =     0.00000035    0.00000303    0.00000636
     atom   58 type  1   force =     0.00000090    0.00000333    0.00000867
     atom   59 type  1   force =    -0.00000019    0.00000315    0.00000660
     atom   60 type  1   force =    -0.00000122    0.00000245    0.00000240
     atom   61 type  1   force =    -0.00000025    0.00000546   -0.00000209
     atom   62 type  1   force =    -0.00000131    0.00000574    0.00000366
     atom   63 type  1   force =    -0.00000141    0.00000565   -0.00000000
     atom   64 type  1   force =    -0.00000131    0.00000117   -0.00000645
     atom   65 type  1   force =    -0.00000106    0.00000489   -0.00000926
     atom   66 type  1   force =    -0.00000096    0.00000635   -0.00000583
     atom   67 type  1   force =     0.00000289    0.00000663   -0.00000525
     atom   68 type  1   force =     0.00000345   -0.00000061   -0.00000645
     atom   69 type  1   force =     0.00000608    0.00000286   -0.00000389
     atom   70 type  1   force =    -0.00000251    0.00000945   -0.00001071
     atom   71 type  1   force =    -0.00000011    0.00000855   -0.00000840
     atom   72 type  1   force =     0.00000438    0.00000416   -0.00000482
     atom   73 type  1   force =     0.00000201   -0.00000031   -0.00000503
     atom   74 type  1   force =     0.00000078   -0.00000242   -0.00000801
     atom   75 type  1   force =     0.00000085   -0.00000414   -0.00000654
     atom   76 type  1   force =     0.00000076    0.00000049   -0.00000229
     atom   77 type  1   force =     0.00000014   -0.00000178    0.00000200
     atom   78 type  1   force =     0.00000068   -0.00000206   -0.00000194
     atom   79 type  1   force =    -0.00000095   -0.00000525   -0.00000061
     atom   80 type  1   force =    -0.00000007    0.00000081    0.00000683
     atom   81 type  1   force =    -0.00000070   -0.00000355    0.00000724
     atom   82 type  1   force =     0.00000026   -0.00000659    0.00000370
     atom   83 type  1   force =     0.00000281   -0.00000671    0.00000753
     atom   84 type  1   force =     0.00000107    0.00000097    0.00000774
     atom   85 type  1   force =     0.00000259   -0.00000258    0.00000659
     atom   86 type  1   force =    -0.00000244   -0.00000455    0.00000745
     atom   87 type  1   force =    -0.00000075   -0.00000635    0.00000588
     atom   88 type  1   force =     0.00000218    0.00000333   -0.00000124
     atom   89 type  1   force =     0.00000349    0.00000082   -0.00000246
     atom   90 type  1   force =     0.00000253   -0.00000508    0.00000327
     atom   91 type  1   force =     0.00000328   -0.00000654   -0.00000111
     atom   92 type  1   force =     0.00000263    0.00000394   -0.00000557
     atom   93 type  1   force =     0.00000032    0.00000088   -0.00000823
     atom   94 type  1   force =     0.00000157   -0.00000048   -0.00000538
     atom   95 type  1   force =     0.00000139   -0.00000455   -0.00000651
     atom   96 type  1   force =    -0.00000070   -0.00000460   -0.00000579
     atom   97 type  1   force =     0.00000020   -0.00000324   -0.00000500
     atom   98 type  1   force =     0.00000062   -0.00000141   -0.00000591
     atom   99 type  1   force =     0.00000073    0.00000099   -0.00000458
     atom  100 type  1   force =     0.00000014   -0.00000348   -0.00000433
     atom  101 type  1   force =     0.00000151   -0.00000082   -0.00000119
     atom  102 type  1   force =    -0.00000010   -0.00000129   -0.00000210
     atom  103 type  1   force =     0.00000037    0.00000225    0.00000124
     atom  104 type  1   force =    -0.00000329   -0.00000370    0.00000396
     atom  105 type  1   force =    -0.00000165   -0.00000196    0.00000582
     atom  106 type  1   force =     0.00000063    0.00000176    0.00000277
     atom  107 type  1   force =     0.00000213    0.00000298    0.00000497
     atom  108 type  1   force =     0.00000005   -0.00000565    0.00000778
     atom  109 type  1   force =     0.00000303   -0.00000386    0.00000647
     atom  110 type  1   force =    -0.00000247    0.00000012    0.00000422
     atom  111 type  1   force =     0.00000096    0.00000266    0.00000256
     atom  112 type  1   force =    -0.00000223   -0.00000720    0.00000287
     atom  113 type  1   force =     0.00000064   -0.00000591    0.00000068
     atom  114 type  1   force =     0.00000298   -0.00000074    0.00000141
     atom  115 type  1   force =     0.00000106   -0.00000590   -0.00000406
     atom  116 type  1   force =     0.00000184   -0.00000417   -0.00000567
     atom  117 type  1   force =     0.00000219   -0.00000441   -0.00000319
     atom  118 type  1   force =     0.00000285   -0.00000098   -0.00000294
     atom  119 type  1   force =     0.00000463    0.00000048   -0.00000300
     atom  120 type  1   force =     0.00000341    0.00000332   -0.00000311
     atom  121 type  1   force =     0.00000195    0.00000395   -0.00000514
     atom  122 type  1   force =    -0.00000033    0.00000402   -0.00000357
     atom  123 type  1   force =     0.00000066    0.00000302   -0.00000123
     atom  124 type  1   force =    -0.00000017    0.00000318    0.00000251
     atom  125 type  1   force =     0.00000268    0.00000367    0.00000151
     atom  126 type  1   force =     0.00000086    0.00000255    0.00000267
     atom  127 type  1   force =    -0.00000045    0.00000341    0.00000515
     atom  128 type  1   force =     0.00000024    0.00000443    0.00000495
     atom  129 type  1   force =     0.00000039    0.00000334    0.00000513
     atom  130 type  1   force =     0.00000128    0.00000332    0.00000741
     atom  131 type  1   force =     0.00000039    0.00000397    0.00000497
     atom  132 type  1   force =     0.00000166    0.00000548    0.00000327
     atom  133 type  1   force =    -0.00000096    0.00000570    0.00000361
     atom  134 type  1   force =     0.00000181    0.00000501    0.00000291
     atom  135 type  1   force =     0.00000281    0.00000279   -0.00000162
     atom  136 type  1   force =     0.00000393    0.00000587   -0.00000291
     atom  137 type  1   force =     0.00000157    0.00000632    0.00000007
     atom  138 type  1   force =     0.00000173    0.00000572   -0.00000296
     atom  139 type  1   force =     0.00000279   -0.00000069   -0.00000187
     atom  140 type  1   force =    -0.00000183    0.00000421   -0.00000507
     atom  141 type  1   force =     0.00000482    0.00000583   -0.00000543
     atom  142 type  1   force =     0.00000511    0.00000461   -0.00000519
     atom  143 type  1   force =    -0.00000263    0.00000217   -0.00000682
     atom  144 type  1   force =    -0.00000280    0.00000170   -0.00000305
     atom  145 type  1   force =    -0.00000178   -0.00000004   -0.00000866
     atom  146 type  1   force =    -0.00000107   -0.00000205   -0.00000563
     atom  147 type  1   force =    -0.00000332    0.00000398    0.00000286
     atom  148 type  1   force =    -0.00000294    0.00000078    0.00000698
     atom  149 type  1   force =     0.00000100   -0.00000360   -0.00000264
     atom  150 type  1   force =     0.00000138   -0.00000454    0.00000133
     atom  151 type  1   force =     0.00000168    0.00000112    0.00000635
     atom  152 type  1   force =     0.00000221   -0.00000193    0.00000934
     atom  153 type  1   force =     0.00000163   -0.00000446    0.00000749
     atom  154 type  1   force =     0.00000149   -0.00000577    0.00000961
     atom  155 type  1   force =     0.00000021    0.00000383    0.00000657
     atom  156 type  1   force =    -0.00000071    0.00000157    0.00000374
     atom  157 type  1   force =     0.00000378   -0.00000594    0.00000895
     atom  158 type  1   force =     0.00000298   -0.00000620    0.00000742
     atom  159 type  1   force =    -0.00000002    0.00000449    0.00000050
     atom  160 type  1   force =    -0.00000028    0.00000158   -0.00000437
     atom  161 type  1   force =     0.00000081   -0.00000190    0.00000125
     atom  162 type  1   force =    -0.00000090   -0.00000480   -0.00000419
     atom  163 type  1   force =    -0.00000334    0.00000737   -0.00000950
     atom  164 type  1   force =    -0.00000301    0.00000509   -0.00001045
     atom  165 type  1   force =    -0.00000023   -0.00000162   -0.00000653
     atom  166 type  1   force =    -0.00000080   -0.00000366   -0.00000852
     atom  167 type  1   force =     0.00000042   -0.00000487   -0.00000802
     atom  168 type  1   force =    -0.00000054   -0.00000350   -0.00000524
     atom  169 type  1   force =    -0.00000354   -0.00000639   -0.00000584
     atom  170 type  1   force =    -0.00000247   -0.00000429   -0.00000045
     atom  171 type  1   force =    -0.00000061   -0.00000415   -0.00000186
     atom  172 type  1   force =     0.00000036   -0.00000277    0.00000315
     atom  173 type  1   force =    -0.00000029   -0.00000071   -0.00000184
     atom  174 type  1   force =    -0.00000044    0.00000078    0.00000249
     atom  175 type  1   force =     0.00000286   -0.00000446    0.00000399
     atom  176 type  1   force =     0.00000264   -0.00000186    0.00000740
     atom  177 type  1   force =     0.00000117    0.00000021    0.00000585
     atom  178 type  1   force =     0.00000054    0.00000042    0.00000660
     atom  179 type  1   force =     0.00000335   -0.00000601    0.00000900
     atom  180 type  1   force =     0.00000110   -0.00000624    0.00000424
     atom  181 type  1   force =     0.00000316    0.00000103    0.00000571
     atom  182 type  1   force =     0.00000090    0.00000027    0.00000271
     atom  183 type  1   force =     0.00000395   -0.00000756    0.00000381
     atom  184 type  1   force =     0.00000105   -0.00000711   -0.00000181
     atom  185 type  1   force =     0.00000096   -0.00000432    0.00000061
     atom  186 type  1   force =    -0.00000431   -0.00000504   -0.00000708
     atom  187 type  1   force =    -0.00000036   -0.00000587   -0.00000712
     atom  188 type  1   force =    -0.00000207   -0.00000821   -0.00000778
     atom  189 type  1   force =     0.00000002   -0.00000370   -0.00000452
     atom  190 type  1   force =    -0.00000479   -0.00000413   -0.00000517
     atom  191 type  1   force =    -0.00000380    0.00000062   -0.00000462
     atom  192 type  1   force =    -0.00000581    0.00000307   -0.00000177
     atom  193 type  1   force =    -0.00000729    0.00000496   -0.00000608
     atom  194 type  1   force =    -0.00000120    0.00000665   -0.00000845
     atom  195 type  1   force =    -0.00000380   -0.00000001    0.00000363
     atom  196 type  1   force =    -0.00000174    0.00000292    0.00000817
     atom  197 type  1   force =    -0.00000251    0.00000379   -0.00000121
     atom  198 type  1   force =    -0.00000150    0.00000538    0.00000532
     atom  199 type  1   force =    -0.00000026    0.00000354    0.00000524
     atom  200 type  1   force =    -0.00000023    0.00000441    0.00000649
     atom  201 type  1   force =    -0.00000038    0.00000404    0.00000772
     atom  202 type  1   force =    -0.00000027    0.00000450    0.00000895
     atom  203 type  1   force =     0.00000023    0.00000239    0.00000482
     atom  204 type  1   force =    -0.00000175    0.00000478   -0.00000038
     atom  205 type  1   force =     0.00000048    0.00000505    0.00000479
     atom  206 type  1   force =     0.00000024    0.00000641    0.00000318
     atom  207 type  1   force =    -0.00000061    0.00000246    0.00000007
     atom  208 type  1   force =    -0.00000371    0.00000519   -0.00000558
     atom  209 type  1   force =    -0.00000230    0.00000720   -0.00000364
     atom  210 type  1   force =    -0.00000288    0.00000865   -0.00000769
     atom  211 type  1   force =    -0.00000516    0.00000057   -0.00000685
     atom  212 type  1   force =    -0.00000694    0.00000366   -0.00000803
     atom  213 type  1   force =    -0.00000348    0.00000631   -0.00000599
     atom  214 type  1   force =    -0.00000499    0.00000597   -0.00000741
     atom  215 type  2   force =     0.00000074    0.00000079   -0.00000043
     atom  216 type  2   force =     0.00000080    0.00000040   -0.00000051
     atom  217 type  2   force =    -0.00000061    0.00000162   -0.00000063
     atom  218 type  2   force =     0.00000084   -0.00000256   -0.00000055
     atom  219 type  2   force =    -0.00000048    0.00000131    0.00000001
     atom  220 type  2   force =    -0.00000025   -0.00000039   -0.00000214
     atom  221 type  2   force =     0.00000052   -0.00000114    0.00000239
     atom  222 type  2   force =     0.00000097    0.00000124   -0.00000058
     atom  223 type  2   force =     0.00000038   -0.00000045   -0.00000056
     atom  224 type  2   force =    -0.00000055    0.00000099   -0.00000239
     atom  225 type  2   force =    -0.00000125    0.00000080   -0.00000177
     atom  226 type  2   force =     0.00000005    0.00000087    0.00000173
     atom  227 type  2   force =    -0.00000015    0.00000165   -0.00000204

     Total force =     0.124001     Total SCF correction =     0.000107


     Computing stress (Cartesian axis) and pressure

          total   stress  (Ry/bohr**3)                   (kbar)     P=   17.41
   0.00011729  -0.00000134  -0.00000145         17.25     -0.20     -0.21
  -0.00000134   0.00012043  -0.00000343         -0.20     17.72     -0.50
  -0.00000145  -0.00000343   0.00011733         -0.21     -0.50     17.26

     kinetic stress (kbar)   2293.17      0.64     -0.99
                                0.64   2293.94      0.11
                               -0.99      0.11   2293.18

     local   stress (kbar)  -1237.10     -0.91      2.07
                               -0.91  -1241.79      3.31
                                2.07      3.31  -1244.94

     nonloc. stress (kbar)   2565.43      0.49     -0.42
                                0.49   2565.20      0.78
                               -0.42      0.78   2565.75

     hartree stress (kbar)    211.62      0.64     -0.83
                                0.64    214.02     -1.29
                               -0.83     -1.29    214.30

     exc-cor stress (kbar)   -809.12     -0.05      0.00
                               -0.05   -809.10     -0.02
                                0.00     -0.02   -809.10

     corecor stress (kbar)      0.00      0.00      0.00
                                0.00      0.00      0.00
                                0.00      0.00      0.00

     ewald   stress (kbar)  -3006.74     -1.02     -0.05
                               -1.02  -3004.56     -3.39
                               -0.05     -3.39  -3001.93

     hubbard stress (kbar)      0.00      0.00      0.00
                                0.00      0.00      0.00
                                0.00      0.00      0.00

     london  stress (kbar)      0.00      0.00      0.00
                                0.00      0.00      0.00
                                0.00      0.00      0.00

     DFT-D3  stress (kbar)      0.00      0.00      0.00
                                0.00      0.00      0.00
                                0.00      0.00      0.00

     XDM     stress (kbar)      0.00      0.00      0.00
                                0.00      0.00      0.00
                                0.00      0.00      0.00

     dft-nl  stress (kbar)      0.00      0.00      0.00
                                0.00      0.00      0.00
                                0.00      0.00      0.00

     TS-vdW  stress (kbar)      0.00      0.00      0.00
                                0.00      0.00      0.00
                                0.00      0.00      0.00



     Writing output data file divacancy_optimize1.save

     init_run     :    211.57s CPU    218.20s WALL (       1 calls)
     electrons    :   8353.26s CPU   8643.74s WALL (       1 calls)
     forces       :     79.68s CPU     80.29s WALL (       1 calls)
     stress       :    735.59s CPU    738.85s WALL (       1 calls)

     Called by init_run:
     wfcinit      :    208.13s CPU    214.65s WALL (       1 calls)
     wfcinit:atom :      0.74s CPU      1.53s WALL (       8 calls)
     wfcinit:wfcr :    196.63s CPU    201.54s WALL (       8 calls)
     potinit      :      0.39s CPU      0.43s WALL (       1 calls)

     Called by electrons:
     c_bands      :   7847.57s CPU   8111.93s WALL (      21 calls)
     sum_band     :    500.16s CPU    524.54s WALL (      21 calls)
     v_of_rho     :      4.65s CPU      4.83s WALL (      21 calls)
     v_h          :      0.24s CPU      0.25s WALL (      21 calls)
     v_xc         :      4.41s CPU      4.58s WALL (      21 calls)
     mix_rho      :      0.90s CPU      1.13s WALL (      21 calls)

     Called by c_bands:
     init_us_2    :     30.20s CPU     32.02s WALL (     360 calls)
     cegterg      :   7786.70s CPU   8027.28s WALL (     168 calls)

     Called by sum_band:

     Called by *egterg:
     h_psi        :   3966.58s CPU   4075.50s WALL (     903 calls)
     g_psi        :     12.89s CPU     12.91s WALL (     727 calls)
     cdiaghg      :   1374.09s CPU   1376.24s WALL (     887 calls)
     cegterg:over :   1057.53s CPU   1064.76s WALL (     727 calls)
     cegterg:upda :    691.96s CPU    697.90s WALL (     727 calls)
     cegterg:last :    410.05s CPU    412.91s WALL (     168 calls)

     Called by h_psi:
     h_psi:pot    :   3945.27s CPU   4051.90s WALL (     903 calls)
     h_psi:calbec :    896.67s CPU    903.95s WALL (     903 calls)
     vloc_psi     :   2147.02s CPU   2244.57s WALL (     903 calls)
     add_vuspsi   :    901.57s CPU    903.38s WALL (     903 calls)

     General routines
     calbec       :    981.99s CPU    989.61s WALL (     943 calls)
     fft          :      2.19s CPU      2.40s WALL (     240 calls)
     fftw         :   2325.97s CPU   2442.48s WALL (  508318 calls)

     Parallel routines
     fft_scatt_xy :    353.73s CPU    354.94s WALL (  508558 calls)
     fft_scatt_yz :    469.24s CPU    576.75s WALL (  508558 calls)

     PWSCF        :     2h36m CPU        2h41m WALL


   This run was terminated on:  11: 1:58   7Nov2020            

=------------------------------------------------------------------------------=
   JOB DONE.
=------------------------------------------------------------------------------=
