
     Program PWSCF v.6.2 (svn rev. 14038) starts on  7Nov2020 at  8:12:14 

     This program is part of the open-source Quantum ESPRESSO suite
     for quantum simulation of materials; please cite
         "P. Giannozzi et al., J. Phys.:Condens. Matter 21 395502 (2009);
         "P. Giannozzi et al., J. Phys.:Condens. Matter 29 465901 (2017);
          URL http://www.quantum-espresso.org", 
     in publications or presentations arising from this work. More details at
     http://www.quantum-espresso.org/quote

     Parallel version (MPI), running on     8 processors

     MPI processes distributed on     1 nodes
     R & G space division:  proc/nbgrp/npool/nimage =       8
     Waiting for input...
     Reading input from standard input
Warning: card &IONS ignored
Warning: card / ignored

     Current dimensions of program PWSCF are:
     Max number of different atomic species (ntypx) = 10
     Max number of k-points (npk) =  40000
     Max angular momentum in pseudopotentials (lmaxx) =  3

     Subspace diagonalization in iterative solution of the eigenvalue problem:
     a serial algorithm will be used


     Parallelization info
     --------------------
     sticks:   dense  smooth     PW     G-vecs:    dense   smooth      PW
     Min        1589    1589    419               134811   134811   18265
     Max        1590    1590    420               134814   134814   18266
     Sum       12717   12717   3357              1078507  1078507  146125



     bravais-lattice index     =            0
     lattice parameter (alat)  =      30.8403  a.u.
     unit-cell volume          =   29332.9180 (a.u.)^3
     number of atoms/cell      =          223
     number of atomic types    =            2
     number of electrons       =       865.00
     number of Kohn-Sham states=          520
     kinetic-energy cutoff     =      42.0000  Ry
     charge density cutoff     =     168.0000  Ry
     convergence threshold     =      1.0E-08
     mixing beta               =       0.3000
     number of iterations used =            8  plain     mixing
     Exchange-correlation      = SLA-PW-PBX-PBC ( 1  4  3  4 0 0)

     celldm(1)=  30.840288  celldm(2)=   0.000000  celldm(3)=   0.000000
     celldm(4)=   0.000000  celldm(5)=   0.000000  celldm(6)=   0.000000

     crystal axes: (cart. coord. in units of alat)
               a(1) = (   1.000000   0.000000   0.000000 )  
               a(2) = (   0.000000   1.000000   0.000000 )  
               a(3) = (   0.000000   0.000000   1.000000 )  

     reciprocal axes: (cart. coord. in units 2 pi/alat)
               b(1) = (  1.000000  0.000000  0.000000 )  
               b(2) = (  0.000000  1.000000  0.000000 )  
               b(3) = (  0.000000  0.000000  1.000000 )  


     PseudoPot. # 1 for Si read from file:
     ./Si.pbe-hgh.UPF
     MD5 check sum: 9a9f0f6e09139bfdb36b03ff6bc35900
     Pseudo is Norm-conserving, Zval =  4.0
     Generated in analytical, separable form
     Using radial grid of 1141 points,  3 beta functions with: 
                l(1) =   0
                l(2) =   0
                l(3) =   1

     PseudoPot. # 2 for H  read from file:
     ./H.pbe-hgh.UPF
     MD5 check sum: 5f350582108a937bec95f27f5610ab08
     Pseudo is Norm-conserving, Zval =  1.0
     Generated in analytical, separable form
     Using radial grid of  929 points,  0 beta functions with: 

     atomic species   valence    mass     pseudopotential
        Si             4.00    28.08000     Si( 1.00)
        H              1.00     1.00784     H ( 1.00)

     No symmetry found


                                    s                        frac. trans.

      isym =  1     identity                                     

 cryst.   s( 1) = (     1          0          0      )
                  (     0          1          0      )
                  (     0          0          1      )

 cart.    s( 1) = (  1.0000000  0.0000000  0.0000000 )
                  (  0.0000000  1.0000000  0.0000000 )
                  (  0.0000000  0.0000000  1.0000000 )


   Cartesian axes

     site n.     atom                  positions (alat units)
         1           Si  tau(   1) = (   0.0819118   0.0835162   0.0889189  )
         2           Si  tau(   2) = (   0.1650510   0.1660870   0.0035852  )
         3           Si  tau(   3) = (   0.2493530   0.2506130   0.0848178  )
         4           Si  tau(   4) = (   0.1680050   0.0011473   0.1687180  )
         5           Si  tau(   5) = (   0.2504290   0.0846903   0.2519950  )
         6           Si  tau(   6) = (   0.9985490   0.1684030   0.1688040  )
         7           Si  tau(   7) = (   0.0829571   0.2511960   0.2520890  )
         8           Si  tau(   8) = (   0.0004963   0.0012413   0.3387990  )
         9           Si  tau(   9) = (   0.0841371   0.0844862   0.4206170  )
        10           Si  tau(  10) = (   0.1660350   0.1671190   0.3351460  )
        11           Si  tau(  11) = (   0.2496550   0.2502740   0.4183750  )
        12           Si  tau(  12) = (   0.1673810   0.0007646   0.5030570  )
        13           Si  tau(  13) = (   0.2502330   0.0843060   0.5860090  )
        14           Si  tau(  14) = (   0.9994850   0.1677800   0.5022130  )
        15           Si  tau(  15) = (   0.0831014   0.2505790   0.5854180  )
        16           Si  tau(  16) = (   0.9996700   0.0007382   0.6675610  )
        17           Si  tau(  17) = (   0.0831227   0.0824684   0.7521220  )
        18           Si  tau(  18) = (   0.1660060   0.1670260   0.6691040  )
        19           Si  tau(  19) = (   0.2490320   0.2506410   0.7520150  )
        20           Si  tau(  20) = (   0.1669410   0.9971620   0.8339930  )
        21           Si  tau(  21) = (   0.2477530   0.0828055   0.9185160  )
        22           Si  tau(  22) = (   0.9984990   0.1660480   0.8347050  )
        23           Si  tau(  23) = (   0.0820241   0.2489040   0.9188740  )
        24           Si  tau(  24) = (   0.9992210   0.3329480   0.0016694  )
        25           Si  tau(  25) = (   0.0824985   0.4164810   0.0848554  )
        26           Si  tau(  26) = (   0.1652690   0.5003300   0.0017449  )
        27           Si  tau(  27) = (   0.2458900   0.5832840   0.0877384  )
        28           Si  tau(  28) = (   0.1664660   0.3340810   0.1684870  )
        29           Si  tau(  29) = (   0.2497210   0.4171500   0.2520230  )
        30           Si  tau(  30) = (   0.9990790   0.4998300   0.1680260  )
        31           Si  tau(  31) = (   0.0815997   0.5836170   0.2514770  )
        32           Si  tau(  32) = (   0.9995180   0.3347860   0.3349710  )
        33           Si  tau(  33) = (   0.0832909   0.4174620   0.4182990  )
        34           Si  tau(  34) = (   0.1662520   0.5009600   0.3346780  )
        35           Si  tau(  35) = (   0.2496910   0.5841950   0.4176590  )
        36           Si  tau(  36) = (   0.1664010   0.3337640   0.5017010  )
        37           Si  tau(  37) = (   0.2494570   0.4174010   0.5850160  )
        38           Si  tau(  38) = (   0.9997150   0.4998160   0.5020380  )
        39           Si  tau(  39) = (   0.0829478   0.5837460   0.5843990  )
        40           Si  tau(  40) = (   0.9995470   0.3338120   0.6682770  )
        41           Si  tau(  41) = (   0.0826415   0.4167030   0.7517240  )
        42           Si  tau(  42) = (   0.1657000   0.5002110   0.6681620  )
        43           Si  tau(  43) = (   0.2485230   0.5842690   0.7511950  )
        44           Si  tau(  44) = (   0.1653990   0.3332620   0.8356700  )
        45           Si  tau(  45) = (   0.2489460   0.4177430   0.9180510  )
        46           Si  tau(  46) = (   0.9992880   0.5000730   0.8347300  )
        47           Si  tau(  47) = (   0.0822758   0.5836140   0.9182160  )
        48           Si  tau(  48) = (   0.9975300   0.6666260   0.0002831  )
        49           Si  tau(  49) = (   0.0801059   0.7517210   0.0818254  )
        50           Si  tau(  50) = (   0.1659300   0.8338650   0.0007974  )
        51           Si  tau(  51) = (   0.2493960   0.9168120   0.0843636  )
        52           Si  tau(  52) = (   0.1624420   0.6692300   0.1681810  )
        53           Si  tau(  53) = (   0.2477720   0.7516550   0.2512280  )
        54           Si  tau(  54) = (   0.0017689   0.8313710   0.1761300  )
        55           Si  tau(  55) = (   0.0840738   0.9215300   0.2535760  )
        56           Si  tau(  56) = (   0.9980180   0.6651570   0.3355660  )
        57           Si  tau(  57) = (   0.0817122   0.7507570   0.4163890  )
        58           Si  tau(  58) = (   0.1659560   0.8358410   0.3353650  )
        59           Si  tau(  59) = (   0.2501580   0.9178870   0.4188220  )
        60           Si  tau(  60) = (   0.1648790   0.6671420   0.4995630  )
        61           Si  tau(  61) = (   0.2475910   0.7512650   0.5820220  )
        62           Si  tau(  62) = (   0.0000380   0.8335720   0.5013900  )
        63           Si  tau(  63) = (   0.0830938   0.9171160   0.5849350  )
        64           Si  tau(  64) = (   0.9996160   0.6666430   0.6678390  )
        65           Si  tau(  65) = (   0.0829182   0.7501420   0.7509060  )
        66           Si  tau(  66) = (   0.1663000   0.8335540   0.6678350  )
        67           Si  tau(  67) = (   0.2521140   0.9148430   0.7505710  )
        68           Si  tau(  68) = (   0.1654520   0.6668180   0.8348090  )
        69           Si  tau(  69) = (   0.2490260   0.7492930   0.9180280  )
        70           Si  tau(  70) = (   0.9982250   0.8327090   0.8334210  )
        71           Si  tau(  71) = (   0.0817611   0.9144220   0.9172190  )
        72           Si  tau(  72) = (   0.3325960   0.0002367   0.0009823  )
        73           Si  tau(  73) = (   0.4158550   0.0838783   0.0845807  )
        74           Si  tau(  74) = (   0.4985650   0.1675520   0.0011756  )
        75           Si  tau(  75) = (   0.5817680   0.2515520   0.0841262  )
        76           Si  tau(  76) = (   0.4989840   0.0016110   0.1689990  )
        77           Si  tau(  77) = (   0.5842400   0.0836205   0.2510820  )
        78           Si  tau(  78) = (   0.3332990   0.1677080   0.1680080  )
        79           Si  tau(  79) = (   0.4167470   0.2502810   0.2516240  )
        80           Si  tau(  80) = (   0.3332380   0.0010593   0.3353220  )
        81           Si  tau(  81) = (   0.4169520   0.0844926   0.4177940  )
        82           Si  tau(  82) = (   0.5005650   0.1671510   0.3347340  )
        83           Si  tau(  83) = (   0.5826060   0.2510120   0.4184310  )
        84           Si  tau(  84) = (   0.5027580   0.0005761   0.4973860  )
        85           Si  tau(  85) = (   0.5826310   0.0839983   0.5836710  )
        86           Si  tau(  86) = (   0.3332840   0.1671500   0.5017270  )
        87           Si  tau(  87) = (   0.4160480   0.2509380   0.5848700  )
        88           Si  tau(  88) = (   0.3340650   0.9999810   0.6671830  )
        89           Si  tau(  89) = (   0.4155630   0.0837590   0.7512180  )
        90           Si  tau(  90) = (   0.4990400   0.1667910   0.6675580  )
        91           Si  tau(  91) = (   0.5824840   0.2500110   0.7507550  )
        92           Si  tau(  92) = (   0.4990550   0.0007380   0.8342090  )
        93           Si  tau(  93) = (   0.5818290   0.0844134   0.9175210  )
        94           Si  tau(  94) = (   0.3314840   0.1663640   0.8350040  )
        95           Si  tau(  95) = (   0.4149970   0.2501760   0.9177550  )
        96           Si  tau(  96) = (   0.3319220   0.3337070   0.0008467  )
        97           Si  tau(  97) = (   0.4145490   0.4165900   0.0849203  )
        98           Si  tau(  98) = (   0.4987540   0.4980500   0.0013837  )
        99           Si  tau(  99) = (   0.5803840   0.5810290   0.0853633  )
       100           Si  tau( 100) = (   0.4988830   0.3342820   0.1682160  )
       101           Si  tau( 101) = (   0.5820940   0.4173210   0.2517710  )
       102           Si  tau( 102) = (   0.3322150   0.5007960   0.1685870  )
       103           Si  tau( 103) = (   0.4157770   0.5844830   0.2511730  )
       104           Si  tau( 104) = (   0.3331010   0.3334150   0.3350110  )
       105           Si  tau( 105) = (   0.4161020   0.4170850   0.4180910  )
       106           Si  tau( 106) = (   0.4987680   0.5008570   0.3346050  )
       107           Si  tau( 107) = (   0.5823450   0.5840800   0.4175810  )
       108           Si  tau( 108) = (   0.4995280   0.3347650   0.5022390  )
       109           Si  tau( 109) = (   0.5820670   0.4190000   0.5861000  )
       110           Si  tau( 110) = (   0.3327100   0.5003590   0.5012090  )
       111           Si  tau( 111) = (   0.4157890   0.5843900   0.5842100  )
       112           Si  tau( 112) = (   0.3325300   0.3340300   0.6684020  )
       113           Si  tau( 113) = (   0.4160460   0.4171830   0.7519740  )
       114           Si  tau( 114) = (   0.4981650   0.5030560   0.6701460  )
       115           Si  tau( 115) = (   0.4988480   0.3327300   0.8342530  )
       116           Si  tau( 116) = (   0.5818240   0.4163600   0.9168130  )
       117           Si  tau( 117) = (   0.3323330   0.5012570   0.8339750  )
       118           Si  tau( 118) = (   0.4088090   0.5797190   0.9259160  )
       119           Si  tau( 119) = (   0.3279600   0.6669380   0.0058742  )
       120           Si  tau( 120) = (   0.4145710   0.7495780   0.0858508  )
       121           Si  tau( 121) = (   0.4962700   0.8348860   0.0036843  )
       122           Si  tau( 122) = (   0.5814220   0.9170170   0.0864586  )
       123           Si  tau( 123) = (   0.4995750   0.6673100   0.1677840  )
       124           Si  tau( 124) = (   0.5834750   0.7508880   0.2509420  )
       125           Si  tau( 125) = (   0.3324720   0.8342690   0.1686240  )
       126           Si  tau( 126) = (   0.4159910   0.9176600   0.2517900  )
       127           Si  tau( 127) = (   0.3320280   0.6679840   0.3339200  )
       128           Si  tau( 128) = (   0.4162870   0.7509360   0.4168570  )
       129           Si  tau( 129) = (   0.5002780   0.8343370   0.3340290  )
       130           Si  tau( 130) = (   0.5877260   0.9182430   0.4125550  )
       131           Si  tau( 131) = (   0.4987740   0.6673210   0.5005420  )
       132           Si  tau( 132) = (   0.5823650   0.7511380   0.5823410  )
       133           Si  tau( 133) = (   0.3333940   0.8338150   0.5005290  )
       134           Si  tau( 134) = (   0.4172220   0.9188540   0.5809780  )
       135           Si  tau( 135) = (   0.3285570   0.6664940   0.6641570  )
       136           Si  tau( 136) = (   0.4119570   0.7528780   0.7418890  )
       137           Si  tau( 137) = (   0.4992650   0.8354700   0.6640770  )
       138           Si  tau( 138) = (   0.5808340   0.9182370   0.7489480  )
       139           Si  tau( 139) = (   0.5883270   0.5820990   0.7493560  )
       140           Si  tau( 140) = (   0.5951580   0.7630180   0.9296510  )
       141           Si  tau( 141) = (   0.3352680   0.8300830   0.8347670  )
       142           Si  tau( 142) = (   0.4158920   0.9170100   0.9171270  )
       143           Si  tau( 143) = (   0.6635390   0.9988830   0.0000690  )
       144           Si  tau( 144) = (   0.7440300   0.0879494   0.0788754  )
       145           Si  tau( 145) = (   0.8319360   0.1693050   0.0002535  )
       146           Si  tau( 146) = (   0.9149720   0.2507000   0.0849807  )
       147           Si  tau( 147) = (   0.8851330   0.9326800   0.1474030  )
       148           Si  tau( 148) = (   0.9213940   0.0919566   0.2616670  )
       149           Si  tau( 149) = (   0.6649240   0.1685770   0.1678190  )
       150           Si  tau( 150) = (   0.7488610   0.2511520   0.2510480  )
       151           Si  tau( 151) = (   0.6743380   0.9988690   0.3261480  )
       152           Si  tau( 152) = (   0.7497020   0.0829415   0.4165530  )
       153           Si  tau( 153) = (   0.8311510   0.1715390   0.3382190  )
       154           Si  tau( 154) = (   0.9167750   0.2527730   0.4198680  )
       155           Si  tau( 155) = (   0.8326360   0.0008894   0.5012220  )
       156           Si  tau( 156) = (   0.9159670   0.0840521   0.5846740  )
       157           Si  tau( 157) = (   0.6659830   0.1663840   0.5000730  )
       158           Si  tau( 158) = (   0.7489660   0.2500340   0.5836990  )
       159           Si  tau( 159) = (   0.6658520   0.0010138   0.6670940  )
       160           Si  tau( 160) = (   0.7492860   0.0842441   0.7504580  )
       161           Si  tau( 161) = (   0.8325510   0.1675790   0.6674590  )
       162           Si  tau( 162) = (   0.9165680   0.2499880   0.7509520  )
       163           Si  tau( 163) = (   0.8324730   0.0008127   0.8332780  )
       164           Si  tau( 164) = (   0.9125000   0.0846372   0.9174680  )
       165           Si  tau( 165) = (   0.6658520   0.1669850   0.8341350  )
       166           Si  tau( 166) = (   0.7484470   0.2514470   0.9170220  )
       167           Si  tau( 167) = (   0.6654360   0.3344700   0.0010133  )
       168           Si  tau( 168) = (   0.7487330   0.4172500   0.0846788  )
       169           Si  tau( 169) = (   0.8329760   0.4997040   0.0016960  )
       170           Si  tau( 170) = (   0.9159220   0.5833980   0.0850076  )
       171           Si  tau( 171) = (   0.8321540   0.3342880   0.1681350  )
       172           Si  tau( 172) = (   0.9155130   0.4172950   0.2516340  )
       173           Si  tau( 173) = (   0.6658170   0.5000380   0.1686770  )
       174           Si  tau( 174) = (   0.7490290   0.5836540   0.2519260  )
       175           Si  tau( 175) = (   0.6654690   0.3340150   0.3347370  )
       176           Si  tau( 176) = (   0.7486480   0.4171260   0.4182980  )
       177           Si  tau( 177) = (   0.8321210   0.5001300   0.3351530  )
       178           Si  tau( 178) = (   0.9157490   0.5822580   0.4191190  )
       179           Si  tau( 179) = (   0.8323220   0.3349040   0.5022670  )
       180           Si  tau( 180) = (   0.9161460   0.4172610   0.5854030  )
       181           Si  tau( 181) = (   0.6652790   0.5007870   0.5011700  )
       182           Si  tau( 182) = (   0.7499410   0.5832440   0.5833230  )
       183           Si  tau( 183) = (   0.6654650   0.3332410   0.6671270  )
       184           Si  tau( 184) = (   0.7510350   0.4144670   0.7495300  )
       185           Si  tau( 185) = (   0.8325070   0.5005040   0.6678140  )
       186           Si  tau( 186) = (   0.9161040   0.5831690   0.7509860  )
       187           Si  tau( 187) = (   0.8336900   0.3331680   0.8345050  )
       188           Si  tau( 188) = (   0.9163990   0.4166250   0.9182880  )
       189           Si  tau( 189) = (   0.6679210   0.4958360   0.8329070  )
       190           Si  tau( 190) = (   0.7498110   0.5799780   0.9158190  )
       191           Si  tau( 191) = (   0.6642730   0.6591830   0.9995720  )
       192           Si  tau( 192) = (   0.7458400   0.7443520   0.0824742  )
       193           Si  tau( 193) = (   0.8245760   0.8264960   0.9936580  )
       194           Si  tau( 194) = (   0.0019315   0.0049623   0.9979430  )
       195           Si  tau( 195) = (   0.8318830   0.6664360   0.1678630  )
       196           Si  tau( 196) = (   0.9137230   0.7473200   0.2538820  )
       197           Si  tau( 197) = (   0.6678680   0.8322980   0.1662000  )
       198           Si  tau( 198) = (   0.7630920   0.9124280   0.2392040  )
       199           Si  tau( 199) = (   0.6660260   0.6675210   0.3347650  )
       200           Si  tau( 200) = (   0.7495110   0.7500360   0.4185170  )
       201           Si  tau( 201) = (   0.8326810   0.8327750   0.3355410  )
       202           Si  tau( 202) = (   0.9156940   0.9165780   0.4188670  )
       203           Si  tau( 203) = (   0.8335300   0.6671660   0.5014430  )
       204           Si  tau( 204) = (   0.9168840   0.7505030   0.5846150  )
       205           Si  tau( 205) = (   0.6664730   0.8345690   0.4999360  )
       206           Si  tau( 206) = (   0.7491620   0.9174050   0.5841940  )
       207           Si  tau( 207) = (   0.6668080   0.6680180   0.6642880  )
       208           Si  tau( 208) = (   0.7500600   0.7495950   0.7481180  )
       209           Si  tau( 209) = (   0.8332800   0.8344020   0.6669400  )
       210           Si  tau( 210) = (   0.9162720   0.9175700   0.7504950  )
       211           Si  tau( 211) = (   0.8308160   0.6655020   0.8328350  )
       212           Si  tau( 212) = (   0.9153240   0.7480910   0.9150170  )
       213           Si  tau( 213) = (   0.6664240   0.8345380   0.8284280  )
       214           Si  tau( 214) = (   0.7472930   0.9181720   0.9143460  )
       215           H   tau( 215) = (   0.6522860   0.8153840   0.9825040  )
       216           H   tau( 216) = (   0.0590607   0.0565110   0.9413640  )
       217           H   tau( 217) = (   0.4717390   0.6869340   0.7741190  )
       218           H   tau( 218) = (   0.0566008   0.7754060   0.2333300  )
       219           H   tau( 219) = (   0.5618360   0.6432350   0.8151840  )
       220           H   tau( 220) = (   0.8002870   0.0381551   0.1311780  )
       221           H   tau( 221) = (   0.8655660   0.0351443   0.2154630  )
       222           H   tau( 222) = (   0.4636510   0.6453130   0.8857000  )
       223           H   tau( 223) = (   0.8754140   0.8784970   0.0584556  )

   Crystallographic axes

     site n.     atom                  positions (cryst. coord.)
         1           Si  tau(   1) = (  0.0819118  0.0835162  0.0889189  )
         2           Si  tau(   2) = (  0.1650510  0.1660870  0.0035852  )
         3           Si  tau(   3) = (  0.2493530  0.2506130  0.0848178  )
         4           Si  tau(   4) = (  0.1680050  0.0011473  0.1687180  )
         5           Si  tau(   5) = (  0.2504290  0.0846903  0.2519950  )
         6           Si  tau(   6) = (  0.9985490  0.1684030  0.1688040  )
         7           Si  tau(   7) = (  0.0829571  0.2511960  0.2520890  )
         8           Si  tau(   8) = (  0.0004963  0.0012413  0.3387990  )
         9           Si  tau(   9) = (  0.0841371  0.0844862  0.4206170  )
        10           Si  tau(  10) = (  0.1660350  0.1671190  0.3351460  )
        11           Si  tau(  11) = (  0.2496550  0.2502740  0.4183750  )
        12           Si  tau(  12) = (  0.1673810  0.0007646  0.5030570  )
        13           Si  tau(  13) = (  0.2502330  0.0843060  0.5860090  )
        14           Si  tau(  14) = (  0.9994850  0.1677800  0.5022130  )
        15           Si  tau(  15) = (  0.0831014  0.2505790  0.5854180  )
        16           Si  tau(  16) = (  0.9996700  0.0007382  0.6675610  )
        17           Si  tau(  17) = (  0.0831227  0.0824684  0.7521220  )
        18           Si  tau(  18) = (  0.1660060  0.1670260  0.6691040  )
        19           Si  tau(  19) = (  0.2490320  0.2506410  0.7520150  )
        20           Si  tau(  20) = (  0.1669410  0.9971620  0.8339930  )
        21           Si  tau(  21) = (  0.2477530  0.0828055  0.9185160  )
        22           Si  tau(  22) = (  0.9984990  0.1660480  0.8347050  )
        23           Si  tau(  23) = (  0.0820241  0.2489040  0.9188740  )
        24           Si  tau(  24) = (  0.9992210  0.3329480  0.0016694  )
        25           Si  tau(  25) = (  0.0824985  0.4164810  0.0848554  )
        26           Si  tau(  26) = (  0.1652690  0.5003300  0.0017449  )
        27           Si  tau(  27) = (  0.2458900  0.5832840  0.0877384  )
        28           Si  tau(  28) = (  0.1664660  0.3340810  0.1684870  )
        29           Si  tau(  29) = (  0.2497210  0.4171500  0.2520230  )
        30           Si  tau(  30) = (  0.9990790  0.4998300  0.1680260  )
        31           Si  tau(  31) = (  0.0815997  0.5836170  0.2514770  )
        32           Si  tau(  32) = (  0.9995180  0.3347860  0.3349710  )
        33           Si  tau(  33) = (  0.0832909  0.4174620  0.4182990  )
        34           Si  tau(  34) = (  0.1662520  0.5009600  0.3346780  )
        35           Si  tau(  35) = (  0.2496910  0.5841950  0.4176590  )
        36           Si  tau(  36) = (  0.1664010  0.3337640  0.5017010  )
        37           Si  tau(  37) = (  0.2494570  0.4174010  0.5850160  )
        38           Si  tau(  38) = (  0.9997150  0.4998160  0.5020380  )
        39           Si  tau(  39) = (  0.0829478  0.5837460  0.5843990  )
        40           Si  tau(  40) = (  0.9995470  0.3338120  0.6682770  )
        41           Si  tau(  41) = (  0.0826415  0.4167030  0.7517240  )
        42           Si  tau(  42) = (  0.1657000  0.5002110  0.6681620  )
        43           Si  tau(  43) = (  0.2485230  0.5842690  0.7511950  )
        44           Si  tau(  44) = (  0.1653990  0.3332620  0.8356700  )
        45           Si  tau(  45) = (  0.2489460  0.4177430  0.9180510  )
        46           Si  tau(  46) = (  0.9992880  0.5000730  0.8347300  )
        47           Si  tau(  47) = (  0.0822758  0.5836140  0.9182160  )
        48           Si  tau(  48) = (  0.9975300  0.6666260  0.0002831  )
        49           Si  tau(  49) = (  0.0801059  0.7517210  0.0818254  )
        50           Si  tau(  50) = (  0.1659300  0.8338650  0.0007974  )
        51           Si  tau(  51) = (  0.2493960  0.9168120  0.0843636  )
        52           Si  tau(  52) = (  0.1624420  0.6692300  0.1681810  )
        53           Si  tau(  53) = (  0.2477720  0.7516550  0.2512280  )
        54           Si  tau(  54) = (  0.0017689  0.8313710  0.1761300  )
        55           Si  tau(  55) = (  0.0840738  0.9215300  0.2535760  )
        56           Si  tau(  56) = (  0.9980180  0.6651570  0.3355660  )
        57           Si  tau(  57) = (  0.0817122  0.7507570  0.4163890  )
        58           Si  tau(  58) = (  0.1659560  0.8358410  0.3353650  )
        59           Si  tau(  59) = (  0.2501580  0.9178870  0.4188220  )
        60           Si  tau(  60) = (  0.1648790  0.6671420  0.4995630  )
        61           Si  tau(  61) = (  0.2475910  0.7512650  0.5820220  )
        62           Si  tau(  62) = (  0.0000380  0.8335720  0.5013900  )
        63           Si  tau(  63) = (  0.0830938  0.9171160  0.5849350  )
        64           Si  tau(  64) = (  0.9996160  0.6666430  0.6678390  )
        65           Si  tau(  65) = (  0.0829182  0.7501420  0.7509060  )
        66           Si  tau(  66) = (  0.1663000  0.8335540  0.6678350  )
        67           Si  tau(  67) = (  0.2521140  0.9148430  0.7505710  )
        68           Si  tau(  68) = (  0.1654520  0.6668180  0.8348090  )
        69           Si  tau(  69) = (  0.2490260  0.7492930  0.9180280  )
        70           Si  tau(  70) = (  0.9982250  0.8327090  0.8334210  )
        71           Si  tau(  71) = (  0.0817611  0.9144220  0.9172190  )
        72           Si  tau(  72) = (  0.3325960  0.0002367  0.0009823  )
        73           Si  tau(  73) = (  0.4158550  0.0838783  0.0845807  )
        74           Si  tau(  74) = (  0.4985650  0.1675520  0.0011756  )
        75           Si  tau(  75) = (  0.5817680  0.2515520  0.0841262  )
        76           Si  tau(  76) = (  0.4989840  0.0016110  0.1689990  )
        77           Si  tau(  77) = (  0.5842400  0.0836205  0.2510820  )
        78           Si  tau(  78) = (  0.3332990  0.1677080  0.1680080  )
        79           Si  tau(  79) = (  0.4167470  0.2502810  0.2516240  )
        80           Si  tau(  80) = (  0.3332380  0.0010593  0.3353220  )
        81           Si  tau(  81) = (  0.4169520  0.0844926  0.4177940  )
        82           Si  tau(  82) = (  0.5005650  0.1671510  0.3347340  )
        83           Si  tau(  83) = (  0.5826060  0.2510120  0.4184310  )
        84           Si  tau(  84) = (  0.5027580  0.0005761  0.4973860  )
        85           Si  tau(  85) = (  0.5826310  0.0839983  0.5836710  )
        86           Si  tau(  86) = (  0.3332840  0.1671500  0.5017270  )
        87           Si  tau(  87) = (  0.4160480  0.2509380  0.5848700  )
        88           Si  tau(  88) = (  0.3340650  0.9999810  0.6671830  )
        89           Si  tau(  89) = (  0.4155630  0.0837590  0.7512180  )
        90           Si  tau(  90) = (  0.4990400  0.1667910  0.6675580  )
        91           Si  tau(  91) = (  0.5824840  0.2500110  0.7507550  )
        92           Si  tau(  92) = (  0.4990550  0.0007380  0.8342090  )
        93           Si  tau(  93) = (  0.5818290  0.0844134  0.9175210  )
        94           Si  tau(  94) = (  0.3314840  0.1663640  0.8350040  )
        95           Si  tau(  95) = (  0.4149970  0.2501760  0.9177550  )
        96           Si  tau(  96) = (  0.3319220  0.3337070  0.0008467  )
        97           Si  tau(  97) = (  0.4145490  0.4165900  0.0849203  )
        98           Si  tau(  98) = (  0.4987540  0.4980500  0.0013837  )
        99           Si  tau(  99) = (  0.5803840  0.5810290  0.0853633  )
       100           Si  tau( 100) = (  0.4988830  0.3342820  0.1682160  )
       101           Si  tau( 101) = (  0.5820940  0.4173210  0.2517710  )
       102           Si  tau( 102) = (  0.3322150  0.5007960  0.1685870  )
       103           Si  tau( 103) = (  0.4157770  0.5844830  0.2511730  )
       104           Si  tau( 104) = (  0.3331010  0.3334150  0.3350110  )
       105           Si  tau( 105) = (  0.4161020  0.4170850  0.4180910  )
       106           Si  tau( 106) = (  0.4987680  0.5008570  0.3346050  )
       107           Si  tau( 107) = (  0.5823450  0.5840800  0.4175810  )
       108           Si  tau( 108) = (  0.4995280  0.3347650  0.5022390  )
       109           Si  tau( 109) = (  0.5820670  0.4190000  0.5861000  )
       110           Si  tau( 110) = (  0.3327100  0.5003590  0.5012090  )
       111           Si  tau( 111) = (  0.4157890  0.5843900  0.5842100  )
       112           Si  tau( 112) = (  0.3325300  0.3340300  0.6684020  )
       113           Si  tau( 113) = (  0.4160460  0.4171830  0.7519740  )
       114           Si  tau( 114) = (  0.4981650  0.5030560  0.6701460  )
       115           Si  tau( 115) = (  0.4988480  0.3327300  0.8342530  )
       116           Si  tau( 116) = (  0.5818240  0.4163600  0.9168130  )
       117           Si  tau( 117) = (  0.3323330  0.5012570  0.8339750  )
       118           Si  tau( 118) = (  0.4088090  0.5797190  0.9259160  )
       119           Si  tau( 119) = (  0.3279600  0.6669380  0.0058742  )
       120           Si  tau( 120) = (  0.4145710  0.7495780  0.0858508  )
       121           Si  tau( 121) = (  0.4962700  0.8348860  0.0036843  )
       122           Si  tau( 122) = (  0.5814220  0.9170170  0.0864586  )
       123           Si  tau( 123) = (  0.4995750  0.6673100  0.1677840  )
       124           Si  tau( 124) = (  0.5834750  0.7508880  0.2509420  )
       125           Si  tau( 125) = (  0.3324720  0.8342690  0.1686240  )
       126           Si  tau( 126) = (  0.4159910  0.9176600  0.2517900  )
       127           Si  tau( 127) = (  0.3320280  0.6679840  0.3339200  )
       128           Si  tau( 128) = (  0.4162870  0.7509360  0.4168570  )
       129           Si  tau( 129) = (  0.5002780  0.8343370  0.3340290  )
       130           Si  tau( 130) = (  0.5877260  0.9182430  0.4125550  )
       131           Si  tau( 131) = (  0.4987740  0.6673210  0.5005420  )
       132           Si  tau( 132) = (  0.5823650  0.7511380  0.5823410  )
       133           Si  tau( 133) = (  0.3333940  0.8338150  0.5005290  )
       134           Si  tau( 134) = (  0.4172220  0.9188540  0.5809780  )
       135           Si  tau( 135) = (  0.3285570  0.6664940  0.6641570  )
       136           Si  tau( 136) = (  0.4119570  0.7528780  0.7418890  )
       137           Si  tau( 137) = (  0.4992650  0.8354700  0.6640770  )
       138           Si  tau( 138) = (  0.5808340  0.9182370  0.7489480  )
       139           Si  tau( 139) = (  0.5883270  0.5820990  0.7493560  )
       140           Si  tau( 140) = (  0.5951580  0.7630180  0.9296510  )
       141           Si  tau( 141) = (  0.3352680  0.8300830  0.8347670  )
       142           Si  tau( 142) = (  0.4158920  0.9170100  0.9171270  )
       143           Si  tau( 143) = (  0.6635390  0.9988830  0.0000690  )
       144           Si  tau( 144) = (  0.7440300  0.0879494  0.0788754  )
       145           Si  tau( 145) = (  0.8319360  0.1693050  0.0002535  )
       146           Si  tau( 146) = (  0.9149720  0.2507000  0.0849807  )
       147           Si  tau( 147) = (  0.8851330  0.9326800  0.1474030  )
       148           Si  tau( 148) = (  0.9213940  0.0919566  0.2616670  )
       149           Si  tau( 149) = (  0.6649240  0.1685770  0.1678190  )
       150           Si  tau( 150) = (  0.7488610  0.2511520  0.2510480  )
       151           Si  tau( 151) = (  0.6743380  0.9988690  0.3261480  )
       152           Si  tau( 152) = (  0.7497020  0.0829415  0.4165530  )
       153           Si  tau( 153) = (  0.8311510  0.1715390  0.3382190  )
       154           Si  tau( 154) = (  0.9167750  0.2527730  0.4198680  )
       155           Si  tau( 155) = (  0.8326360  0.0008894  0.5012220  )
       156           Si  tau( 156) = (  0.9159670  0.0840521  0.5846740  )
       157           Si  tau( 157) = (  0.6659830  0.1663840  0.5000730  )
       158           Si  tau( 158) = (  0.7489660  0.2500340  0.5836990  )
       159           Si  tau( 159) = (  0.6658520  0.0010138  0.6670940  )
       160           Si  tau( 160) = (  0.7492860  0.0842441  0.7504580  )
       161           Si  tau( 161) = (  0.8325510  0.1675790  0.6674590  )
       162           Si  tau( 162) = (  0.9165680  0.2499880  0.7509520  )
       163           Si  tau( 163) = (  0.8324730  0.0008127  0.8332780  )
       164           Si  tau( 164) = (  0.9125000  0.0846372  0.9174680  )
       165           Si  tau( 165) = (  0.6658520  0.1669850  0.8341350  )
       166           Si  tau( 166) = (  0.7484470  0.2514470  0.9170220  )
       167           Si  tau( 167) = (  0.6654360  0.3344700  0.0010133  )
       168           Si  tau( 168) = (  0.7487330  0.4172500  0.0846788  )
       169           Si  tau( 169) = (  0.8329760  0.4997040  0.0016960  )
       170           Si  tau( 170) = (  0.9159220  0.5833980  0.0850076  )
       171           Si  tau( 171) = (  0.8321540  0.3342880  0.1681350  )
       172           Si  tau( 172) = (  0.9155130  0.4172950  0.2516340  )
       173           Si  tau( 173) = (  0.6658170  0.5000380  0.1686770  )
       174           Si  tau( 174) = (  0.7490290  0.5836540  0.2519260  )
       175           Si  tau( 175) = (  0.6654690  0.3340150  0.3347370  )
       176           Si  tau( 176) = (  0.7486480  0.4171260  0.4182980  )
       177           Si  tau( 177) = (  0.8321210  0.5001300  0.3351530  )
       178           Si  tau( 178) = (  0.9157490  0.5822580  0.4191190  )
       179           Si  tau( 179) = (  0.8323220  0.3349040  0.5022670  )
       180           Si  tau( 180) = (  0.9161460  0.4172610  0.5854030  )
       181           Si  tau( 181) = (  0.6652790  0.5007870  0.5011700  )
       182           Si  tau( 182) = (  0.7499410  0.5832440  0.5833230  )
       183           Si  tau( 183) = (  0.6654650  0.3332410  0.6671270  )
       184           Si  tau( 184) = (  0.7510350  0.4144670  0.7495300  )
       185           Si  tau( 185) = (  0.8325070  0.5005040  0.6678140  )
       186           Si  tau( 186) = (  0.9161040  0.5831690  0.7509860  )
       187           Si  tau( 187) = (  0.8336900  0.3331680  0.8345050  )
       188           Si  tau( 188) = (  0.9163990  0.4166250  0.9182880  )
       189           Si  tau( 189) = (  0.6679210  0.4958360  0.8329070  )
       190           Si  tau( 190) = (  0.7498110  0.5799780  0.9158190  )
       191           Si  tau( 191) = (  0.6642730  0.6591830  0.9995720  )
       192           Si  tau( 192) = (  0.7458400  0.7443520  0.0824742  )
       193           Si  tau( 193) = (  0.8245760  0.8264960  0.9936580  )
       194           Si  tau( 194) = (  0.0019315  0.0049623  0.9979430  )
       195           Si  tau( 195) = (  0.8318830  0.6664360  0.1678630  )
       196           Si  tau( 196) = (  0.9137230  0.7473200  0.2538820  )
       197           Si  tau( 197) = (  0.6678680  0.8322980  0.1662000  )
       198           Si  tau( 198) = (  0.7630920  0.9124280  0.2392040  )
       199           Si  tau( 199) = (  0.6660260  0.6675210  0.3347650  )
       200           Si  tau( 200) = (  0.7495110  0.7500360  0.4185170  )
       201           Si  tau( 201) = (  0.8326810  0.8327750  0.3355410  )
       202           Si  tau( 202) = (  0.9156940  0.9165780  0.4188670  )
       203           Si  tau( 203) = (  0.8335300  0.6671660  0.5014430  )
       204           Si  tau( 204) = (  0.9168840  0.7505030  0.5846150  )
       205           Si  tau( 205) = (  0.6664730  0.8345690  0.4999360  )
       206           Si  tau( 206) = (  0.7491620  0.9174050  0.5841940  )
       207           Si  tau( 207) = (  0.6668080  0.6680180  0.6642880  )
       208           Si  tau( 208) = (  0.7500600  0.7495950  0.7481180  )
       209           Si  tau( 209) = (  0.8332800  0.8344020  0.6669400  )
       210           Si  tau( 210) = (  0.9162720  0.9175700  0.7504950  )
       211           Si  tau( 211) = (  0.8308160  0.6655020  0.8328350  )
       212           Si  tau( 212) = (  0.9153240  0.7480910  0.9150170  )
       213           Si  tau( 213) = (  0.6664240  0.8345380  0.8284280  )
       214           Si  tau( 214) = (  0.7472930  0.9181720  0.9143460  )
       215           H   tau( 215) = (  0.6522860  0.8153840  0.9825040  )
       216           H   tau( 216) = (  0.0590607  0.0565110  0.9413640  )
       217           H   tau( 217) = (  0.4717390  0.6869340  0.7741190  )
       218           H   tau( 218) = (  0.0566008  0.7754060  0.2333300  )
       219           H   tau( 219) = (  0.5618360  0.6432350  0.8151840  )
       220           H   tau( 220) = (  0.8002870  0.0381551  0.1311780  )
       221           H   tau( 221) = (  0.8655660  0.0351443  0.2154630  )
       222           H   tau( 222) = (  0.4636510  0.6453130  0.8857000  )
       223           H   tau( 223) = (  0.8754140  0.8784970  0.0584556  )

     number of k points=     8  Marzari-Vanderbilt smearing, width (Ry)=  0.0500
                       cart. coord. in units 2pi/alat
        k(    1) = (   0.0000000   0.0000000   0.0000000), wk =   0.2500000
        k(    2) = (   0.0000000   0.0000000  -0.5000000), wk =   0.2500000
        k(    3) = (   0.0000000  -0.5000000  -0.5000000), wk =   0.2500000
        k(    4) = (  -0.5000000  -0.5000000  -0.5000000), wk =   0.2500000
        k(    5) = (  -0.5000000   0.0000000   0.0000000), wk =   0.2500000
        k(    6) = (   0.0000000  -0.5000000   0.0000000), wk =   0.2500000
        k(    7) = (  -0.5000000   0.0000000   0.5000000), wk =   0.2500000
        k(    8) = (  -0.5000000   0.5000000   0.0000000), wk =   0.2500000

                       cryst. coord.
        k(    1) = (   0.0000000   0.0000000   0.0000000), wk =   0.2500000
        k(    2) = (   0.0000000   0.0000000  -0.5000000), wk =   0.2500000
        k(    3) = (   0.0000000  -0.5000000  -0.5000000), wk =   0.2500000
        k(    4) = (  -0.5000000  -0.5000000  -0.5000000), wk =   0.2500000
        k(    5) = (  -0.5000000   0.0000000   0.0000000), wk =   0.2500000
        k(    6) = (   0.0000000  -0.5000000   0.0000000), wk =   0.2500000
        k(    7) = (  -0.5000000   0.0000000   0.5000000), wk =   0.2500000
        k(    8) = (  -0.5000000   0.5000000   0.0000000), wk =   0.2500000

     Dense  grid:  1078507 G-vectors     FFT dimensions: ( 128, 128, 128)

     Dynamical RAM for                 wfc:     133.72 MB

     Dynamical RAM for     wfc (w. buffer):    1203.49 MB

     Dynamical RAM for           str. fact:       4.11 MB

     Dynamical RAM for           local pot:       0.00 MB

     Dynamical RAM for          nlocal pot:     275.16 MB

     Dynamical RAM for                qrad:       1.75 MB

     Dynamical RAM for          rho,v,vnew:      12.17 MB

     Dynamical RAM for               rhoin:       4.06 MB

     Dynamical RAM for            rho*nmix:      32.91 MB

     Dynamical RAM for           G-vectors:       8.74 MB

     Dynamical RAM for          h,s,v(r/c):     198.05 MB

     Dynamical RAM for          <psi|beta>:       8.49 MB

     Dynamical RAM for                 psi:     534.89 MB

     Dynamical RAM for                hpsi:     534.89 MB

     Dynamical RAM for      wfcinit/wfcrot:     462.01 MB

     Estimated static dynamical RAM per process >       1.52 GB

     Estimated max dynamical RAM per process >       2.77 GB

     Estimated total dynamical RAM >      22.15 GB

     Initial potential from superposition of free atoms

     starting charge  864.88023, renormalised to  865.00000
     Starting wfc are  865 randomized atomic wfcs

     total cpu time spent up to now is      249.3 secs

     Self-consistent Calculation

     iteration #  1     ecut=    42.00 Ry     beta= 0.30
     Davidson diagonalization with overlap
     ethr =  1.00E-02,  avg # of iterations =  3.8

     Threshold (ethr) on eigenvalues was too large:
     Diagonalizing with lowered threshold

     Davidson diagonalization with overlap
     ethr =  7.97E-04,  avg # of iterations =  3.0

     total cpu time spent up to now is     1287.1 secs

     total energy              =   -1695.65662730 Ry
     Harris-Foulkes estimate   =   -1696.76242973 Ry
     estimated scf accuracy    <       6.75284292 Ry

     iteration #  2     ecut=    42.00 Ry     beta= 0.30
     Davidson diagonalization with overlap
     ethr =  7.81E-04,  avg # of iterations =  4.1

     total cpu time spent up to now is     1682.7 secs

     total energy              =   -1695.17828923 Ry
     Harris-Foulkes estimate   =   -1695.89310725 Ry
     estimated scf accuracy    <       3.20663006 Ry

     iteration #  3     ecut=    42.00 Ry     beta= 0.30
     Davidson diagonalization with overlap
     ethr =  3.71E-04,  avg # of iterations =  7.1

     total cpu time spent up to now is     2266.5 secs

     total energy              =   -1694.94087213 Ry
     Harris-Foulkes estimate   =   -1695.83223771 Ry
     estimated scf accuracy    <       4.41582367 Ry

     iteration #  4     ecut=    42.00 Ry     beta= 0.30
     Davidson diagonalization with overlap
     ethr =  3.71E-04,  avg # of iterations =  4.8

     total cpu time spent up to now is     2797.1 secs

     total energy              =   -1695.33261011 Ry
     Harris-Foulkes estimate   =   -1695.39845258 Ry
     estimated scf accuracy    <       0.33773604 Ry

     iteration #  5     ecut=    42.00 Ry     beta= 0.30
     Davidson diagonalization with overlap
     ethr =  3.90E-05,  avg # of iterations =  9.6

     total cpu time spent up to now is     3438.5 secs

     total energy              =   -1695.36769365 Ry
     Harris-Foulkes estimate   =   -1695.38027806 Ry
     estimated scf accuracy    <       0.06435292 Ry

     iteration #  6     ecut=    42.00 Ry     beta= 0.30
     Davidson diagonalization with overlap
     ethr =  7.44E-06,  avg # of iterations = 13.6

     total cpu time spent up to now is     4197.3 secs

     total energy              =   -1695.37284572 Ry
     Harris-Foulkes estimate   =   -1695.37704898 Ry
     estimated scf accuracy    <       0.02356320 Ry

     iteration #  7     ecut=    42.00 Ry     beta= 0.30
     Davidson diagonalization with overlap
     ethr =  2.72E-06,  avg # of iterations = 13.0

     total cpu time spent up to now is     4940.4 secs

     total energy              =   -1695.37436757 Ry
     Harris-Foulkes estimate   =   -1695.37662997 Ry
     estimated scf accuracy    <       0.01253160 Ry

     iteration #  8     ecut=    42.00 Ry     beta= 0.30
     Davidson diagonalization with overlap
     ethr =  1.45E-06,  avg # of iterations =  9.2

     total cpu time spent up to now is     5508.8 secs

     total energy              =   -1695.37559497 Ry
     Harris-Foulkes estimate   =   -1695.37579957 Ry
     estimated scf accuracy    <       0.00178679 Ry

     iteration #  9     ecut=    42.00 Ry     beta= 0.30
     Davidson diagonalization with overlap
     ethr =  2.07E-07,  avg # of iterations =  3.0

     total cpu time spent up to now is     5926.3 secs

     total energy              =   -1695.37572667 Ry
     Harris-Foulkes estimate   =   -1695.37579299 Ry
     estimated scf accuracy    <       0.00039530 Ry

     iteration # 10     ecut=    42.00 Ry     beta= 0.30
     Davidson diagonalization with overlap
     ethr =  4.57E-08,  avg # of iterations =  3.6

     total cpu time spent up to now is     6385.0 secs

     total energy              =   -1695.37576064 Ry
     Harris-Foulkes estimate   =   -1695.37581106 Ry
     estimated scf accuracy    <       0.00024992 Ry

     iteration # 11     ecut=    42.00 Ry     beta= 0.30
     Davidson diagonalization with overlap
     ethr =  2.89E-08,  avg # of iterations =  2.9

     total cpu time spent up to now is     6801.0 secs

     total energy              =   -1695.37579345 Ry
     Harris-Foulkes estimate   =   -1695.37579895 Ry
     estimated scf accuracy    <       0.00004290 Ry

     iteration # 12     ecut=    42.00 Ry     beta= 0.30
     Davidson diagonalization with overlap
     ethr =  4.96E-09,  avg # of iterations =  3.2

     total cpu time spent up to now is     7227.4 secs

     total energy              =   -1695.37580002 Ry
     Harris-Foulkes estimate   =   -1695.37579971 Ry
     estimated scf accuracy    <       0.00000669 Ry

     iteration # 13     ecut=    42.00 Ry     beta= 0.30
     Davidson diagonalization with overlap
     ethr =  7.73E-10,  avg # of iterations =  3.4

     total cpu time spent up to now is     7706.1 secs

     total energy              =   -1695.37580182 Ry
     Harris-Foulkes estimate   =   -1695.37580126 Ry
     estimated scf accuracy    <       0.00000199 Ry

     iteration # 14     ecut=    42.00 Ry     beta= 0.30
     Davidson diagonalization with overlap
     ethr =  2.30E-10,  avg # of iterations =  3.4

     total cpu time spent up to now is     8135.3 secs

     total energy              =   -1695.37580233 Ry
     Harris-Foulkes estimate   =   -1695.37580217 Ry
     estimated scf accuracy    <       0.00000142 Ry

     iteration # 15     ecut=    42.00 Ry     beta= 0.30
     Davidson diagonalization with overlap
     ethr =  1.64E-10,  avg # of iterations =  3.2

     total cpu time spent up to now is     8545.0 secs

     total energy              =   -1695.37580281 Ry
     Harris-Foulkes estimate   =   -1695.37580251 Ry
     estimated scf accuracy    <       0.00000045 Ry

     iteration # 16     ecut=    42.00 Ry     beta= 0.30
     Davidson diagonalization with overlap
     ethr =  5.19E-11,  avg # of iterations =  3.6

     total cpu time spent up to now is     8959.5 secs

     total energy              =   -1695.37580293 Ry
     Harris-Foulkes estimate   =   -1695.37580287 Ry
     estimated scf accuracy    <       0.00000017 Ry

     iteration # 17     ecut=    42.00 Ry     beta= 0.30
     Davidson diagonalization with overlap
     ethr =  1.95E-11,  avg # of iterations =  3.8

     total cpu time spent up to now is     9385.1 secs

     total energy              =   -1695.37580299 Ry
     Harris-Foulkes estimate   =   -1695.37580296 Ry
     estimated scf accuracy    <       0.00000008 Ry

     iteration # 18     ecut=    42.00 Ry     beta= 0.30
     Davidson diagonalization with overlap
     ethr =  9.43E-12,  avg # of iterations =  3.4

     total cpu time spent up to now is     9791.8 secs

     End of self-consistent calculation

          k = 0.0000 0.0000 0.0000 (134683 PWs)   bands (ev):

    -5.8549  -5.4530  -5.4063  -5.3664  -5.3406  -5.3363  -5.3333  -5.0284
    -4.9976  -4.9234  -4.8923  -4.8903  -4.8829  -4.8760  -4.8709  -4.8672
    -4.8669  -4.8621  -4.8320  -4.5123  -4.4944  -4.4731  -4.4680  -4.4626
    -4.4503  -4.4407  -4.4217  -4.0498  -4.0023  -3.9864  -3.9364  -3.9133
    -3.9021  -3.7434  -3.7218  -3.6944  -3.6284  -3.6123  -3.5787  -3.5701
    -3.5639  -3.5565  -3.5531  -3.5525  -3.5478  -3.5444  -3.5436  -3.5400
    -3.5363  -3.5340  -3.5331  -3.5321  -3.5277  -3.5262  -3.5183  -3.4845
    -3.4520  -3.4257  -3.4051  -3.3987  -3.3730  -3.3661  -3.3608  -3.3598
    -3.3570  -3.3532  -3.3520  -3.3467  -3.3426  -3.3393  -3.3356  -3.3340
    -3.3335  -3.3280  -3.3265  -3.3262  -3.3216  -3.3183  -3.3001  -3.2733
    -3.0062  -2.6380  -2.6251  -2.6223  -2.5955  -2.5868  -2.5851  -2.5828
    -2.5770  -2.5705  -2.5583  -2.5349  -2.4226  -1.9377  -1.7722  -1.7515
    -1.7211  -1.7074  -1.6738  -1.6627  -1.6510  -1.6358  -1.6244  -1.6038
    -1.6030  -1.5951  -1.5942  -1.5925  -1.5883  -1.5837  -1.5760  -1.5753
    -1.5725  -1.5701  -1.5673  -1.5665  -1.5631  -1.5618  -1.5603  -1.5572
    -1.5553  -1.5007  -1.2964  -1.0071  -0.7766  -0.7484  -0.7286  -0.6930
    -0.6764  -0.6645  -0.6589  -0.6529  -0.6485  -0.6395  -0.6154  -0.6022
    -0.5838  -0.5411  -0.5363  -0.5126  -0.5051  -0.4976  -0.4917  -0.4884
    -0.4848  -0.4808  -0.4776  -0.4754  -0.4727  -0.4702  -0.4691  -0.4653
    -0.4586  -0.4552  -0.4389  -0.4265  -0.3810  -0.3085  -0.2203   0.3020
     0.3556   0.3779   0.3947   0.4162   0.4267   0.4337   0.4454   0.4492
     0.4526   0.4567   0.4617   0.4666   0.4667   0.4744   0.4757   0.4784
     0.4826   0.4849   0.4886   0.4919   0.4933   0.5656   0.6503   0.6880
     0.7405   0.7621   0.7751   0.7905   0.7973   0.8158   0.8731   1.0402
     1.0557   1.0747   1.0815   1.1043   1.2816   1.3031   1.5872   1.6295
     1.6824   1.7054   1.7081   1.7118   1.7158   1.7186   1.7377   1.7475
     1.7933   1.9886   2.0663   2.1340   2.1887   2.2331   2.2577   2.3260
     2.3408   2.3808   2.3832   2.3883   2.3933   2.3972   2.4109   2.4273
     2.4299   2.4306   2.4412   2.4443   2.4610   2.4647   2.4707   2.4753
     2.4796   2.4819   2.4866   2.4917   2.4926   2.4994   2.5024   2.5039
     2.5059   2.5101   2.5133   2.5181   2.5198   2.5257   2.5280   2.5324
     2.5346   2.5419   2.5447   2.5483   2.5530   2.5560   2.5619   2.5628
     2.5654   2.5685   2.5706   2.5769   2.5828   2.5849   2.6003   2.6221
     2.6471   2.6607   2.6761   2.7609   2.7827   3.0750   3.1419   3.1720
     3.1891   3.2283   3.2385   3.2509   3.2654   3.2693   3.2731   3.2803
     3.2909   3.2930   3.3157   3.3204   3.3308   3.3331   3.3384   3.3411
     3.3426   3.3478   3.3505   3.3539   3.3608   3.3696   3.3863   3.3919
     3.3990   3.4301   3.4564   3.5226   3.5386   3.5873   3.6138   3.6239
     3.6366   3.6615   3.6730   3.6838   3.6858   3.6945   3.7012   3.7017
     3.7092   3.7106   3.7144   3.7164   3.7201   3.7217   3.7298   3.7348
     3.7394   3.7458   3.7497   3.7533   3.7757   3.7784   3.7833   3.7923
     3.7962   3.7971   3.8090   3.8119   3.8185   3.8206   3.8251   3.8275
     3.8303   3.8347   3.8485   3.8569   3.8619   3.8721   3.8834   3.8972
     3.9152   3.9431   3.9550   3.9691   3.9716   3.9934   4.0002   4.0034
     4.0108   4.0144   4.0229   4.0256   4.0280   4.0367   4.0456   4.0535
     4.0654   4.1066   4.1290   4.1779   4.1932   4.2666   4.2839   4.2926
     4.2987   4.3066   4.3173   4.3237   4.3250   4.3280   4.3370   4.3387
     4.3457   4.3483   4.3502   4.3556   4.3623   4.3627   4.3689   4.3815
     4.3874   4.3885   4.4139   4.4586   4.6111   4.7970   4.8528   4.8740
     4.8868   4.9146   4.9179   4.9329   4.9435   4.9540   4.9752   4.9861
     5.0025   5.0496   5.0617   5.0704   5.0836   5.0917   5.0941   5.0959
     5.1019   5.1136   5.1176   5.1217   5.1300   5.1351   5.1477   5.1746
     5.2541   5.4295   5.4845   5.5056   5.5171   5.5293   5.5356   5.5415
     5.5433   5.5475   5.5515   5.5593   5.5789   6.0508   6.0718   6.0811
     6.3501   6.6289   6.8129   6.8215   6.8525   6.8580   6.8656   6.8722
     6.8938   6.9052   6.9180   6.9619   7.0569   7.2854   7.3821   7.5609
     7.5858   7.6526   7.6712   7.6839   7.6959   7.7048   7.7208   7.7285
     7.7422   7.7527   7.7668   7.7763   7.7975   7.8100   7.8210   7.8242
     7.8272   7.8394   7.8476   7.8616   7.8679   7.9002   7.9293   7.9516
     7.9597   8.0101   8.0326   8.0781   8.0870   8.1040   8.1110   8.1143
     8.1222   8.1261   8.1272   8.1301   8.1349   8.1453   8.1465   8.1513
     8.1589   8.1614   8.1697   8.1808   8.1969   8.2004   8.2194   8.2468
     8.2617   8.2793   8.3169   8.3198   8.5124   8.5284   8.5735   8.6304
     8.6843   8.6980   8.7231   8.7390   8.7752   8.8095   8.8252   8.8280
     8.8367   8.8422   8.8453   8.8482   8.8577   8.8599   8.8653   8.8686

     occupation numbers 
     1.0000   1.0000   1.0000   1.0000   1.0000   1.0000   1.0000   1.0000
     1.0000   1.0000   1.0000   1.0000   1.0000   1.0000   1.0000   1.0000
     1.0000   1.0000   1.0000   1.0000   1.0000   1.0000   1.0000   1.0000
     1.0000   1.0000   1.0000   1.0000   1.0000   1.0000   1.0000   1.0000
     1.0000   1.0000   1.0000   1.0000   1.0000   1.0000   1.0000   1.0000
     1.0000   1.0000   1.0000   1.0000   1.0000   1.0000   1.0000   1.0000
     1.0000   1.0000   1.0000   1.0000   1.0000   1.0000   1.0000   1.0000
     1.0000   1.0000   1.0000   1.0000   1.0000   1.0000   1.0000   1.0000
     1.0000   1.0000   1.0000   1.0000   1.0000   1.0000   1.0000   1.0000
     1.0000   1.0000   1.0000   1.0000   1.0000   1.0000   1.0000   1.0000
     1.0000   1.0000   1.0000   1.0000   1.0000   1.0000   1.0000   1.0000
     1.0000   1.0000   1.0000   1.0000   1.0000   1.0000   1.0000   1.0000
     1.0000   1.0000   1.0000   1.0000   1.0000   1.0000   1.0000   1.0000
     1.0000   1.0000   1.0000   1.0000   1.0000   1.0000   1.0000   1.0000
     1.0000   1.0000   1.0000   1.0000   1.0000   1.0000   1.0000   1.0000
     1.0000   1.0000   1.0000   1.0000   1.0000   1.0000   1.0000   1.0000
     1.0000   1.0000   1.0000   1.0000   1.0000   1.0000   1.0000   1.0000
     1.0000   1.0000   1.0000   1.0000   1.0000   1.0000   1.0000   1.0000
     1.0000   1.0000   1.0000   1.0000   1.0000   1.0000   1.0000   1.0000
     1.0000   1.0000   1.0000   1.0000   1.0000   1.0000   1.0000   1.0000
     1.0000   1.0000   1.0000   1.0000   1.0000   1.0000   1.0000   1.0000
     1.0000   1.0000   1.0000   1.0000   1.0000   1.0000   1.0000   1.0000
     1.0000   1.0000   1.0000   1.0000   1.0000   1.0000   1.0000   1.0000
     1.0000   1.0000   1.0000   1.0000   1.0000   1.0000   1.0000   1.0000
     1.0000   1.0000   1.0000   1.0000   1.0000   1.0000   1.0000   1.0000
     1.0000   1.0000   1.0000   1.0000   1.0000   1.0000   1.0000   1.0000
     1.0000   1.0000   1.0000   1.0000   1.0000   1.0000   1.0000   1.0000
     1.0000   1.0000   1.0000   1.0000   1.0000   1.0000   1.0000   1.0000
     1.0000   1.0000   1.0000   1.0000   1.0000   1.0000   1.0000   1.0000
     1.0000   1.0000   1.0000   1.0000   1.0000   1.0000   1.0000   1.0000
     1.0000   1.0000   1.0000   1.0000   1.0000   1.0000   1.0000   1.0000
     1.0000   1.0000   1.0000   1.0000   1.0000   1.0000   1.0000   1.0000
     1.0000   1.0000   1.0000   1.0000   1.0000   1.0000   1.0000   1.0000
     1.0000   1.0000   1.0000   1.0000   1.0000   1.0000   1.0000   1.0000
     1.0000   1.0000   1.0000   1.0000   1.0000   1.0000   1.0000   1.0000
     1.0000   1.0000   1.0000   1.0000   1.0000   1.0000   1.0000   1.0000
     1.0000   1.0000   1.0000   1.0000   1.0000   1.0000   1.0000   1.0000
     1.0000   1.0000   1.0000   1.0001   1.0001   1.0001   1.0001   1.0002
     1.0002   1.0002   1.0002   1.0002   1.0002   1.0003   1.0003   1.0003
     1.0003   1.0003   1.0003   1.0003   1.0003   1.0003   1.0003   1.0004
     1.0004   1.0004   1.0004   1.0004   1.0005   1.0005   1.0005   1.0005
     1.0006   1.0006   1.0006   1.0006   1.0007   1.0007   1.0007   1.0007
     1.0007   1.0007   1.0008   1.0009   1.0009   1.0010   1.0010   1.0011
     1.0013   1.0015   1.0017   1.0018   1.0018   1.0021   1.0022   1.0023
     1.0024   1.0024   1.0025   1.0026   1.0026   1.0028   1.0029   1.0031
     1.0033   1.0042   1.0048   1.0062   1.0068   1.0099   1.0107   1.0112
     1.0115   1.0120   1.0126   1.0130   1.0131   1.0132   1.0138   1.0139
     1.0144   1.0145   1.0147   1.0150   1.0155   1.0155   1.0160   1.0169
     1.0173   1.0174   1.0194   1.0233   1.0404   1.0655   1.0724   1.0748
     1.0761   1.0787   1.0789   1.0801   1.0808   1.0815   1.0825   1.0829
     1.0832   1.0827   1.0822   1.0817   1.0807   1.0800   1.0798   1.0796
     1.0790   1.0777   1.0772   1.0767   1.0755   1.0748   1.0727   1.0674
     1.0446   0.9511   0.9095   0.8922   0.8824   0.8717   0.8661   0.8608
     0.8592   0.8554   0.8517   0.8445   0.8261   0.3308   0.3118   0.3036
     0.1211   0.0344   0.0126   0.0120   0.0100   0.0097   0.0092   0.0089
     0.0078   0.0072   0.0067   0.0050   0.0027   0.0005   0.0002   0.0000
     0.0000   0.0000   0.0000   0.0000   0.0000   0.0000   0.0000   0.0000
     0.0000   0.0000   0.0000   0.0000   0.0000   0.0000   0.0000   0.0000
     0.0000   0.0000   0.0000   0.0000   0.0000   0.0000   0.0000   0.0000
     0.0000   0.0000   0.0000   0.0000   0.0000   0.0000   0.0000   0.0000
     0.0000   0.0000   0.0000   0.0000   0.0000   0.0000   0.0000   0.0000
     0.0000   0.0000   0.0000   0.0000   0.0000   0.0000   0.0000   0.0000
     0.0000   0.0000   0.0000   0.0000   0.0000   0.0000   0.0000   0.0000
     0.0000   0.0000   0.0000   0.0000   0.0000   0.0000   0.0000   0.0000
     0.0000   0.0000   0.0000   0.0000   0.0000   0.0000   0.0000   0.0000

          k = 0.0000 0.0000-0.5000 (134800 PWs)   bands (ev):

    -5.7675  -5.6990  -5.3558  -5.3232  -5.2544  -5.2406  -5.2274  -5.2169
    -5.2087  -5.1910  -4.9120  -4.8309  -4.8050  -4.7953  -4.7714  -4.7689
    -4.7594  -4.7571  -4.7490  -4.7056  -4.4170  -4.3844  -4.3448  -4.3203
    -4.3158  -4.3101  -4.2981  -4.2595  -4.0581  -4.0227  -3.9928  -3.9753
    -3.9665  -3.9514  -3.9469  -3.9282  -3.9221  -3.8765  -3.8470  -3.8384
    -3.8292  -3.8267  -3.8156  -3.7618  -3.6243  -3.5944  -3.5343  -3.5238
    -3.5031  -3.4974  -3.4918  -3.4868  -3.4837  -3.4807  -3.4761  -3.4718
    -3.4702  -3.4591  -3.4504  -3.3779  -3.3140  -3.2873  -3.2769  -3.2738
    -3.2650  -3.2606  -3.2463  -3.2170  -3.1506  -3.1364  -3.1222  -3.1040
    -3.1027  -3.0934  -3.0842  -3.0257  -2.9380  -2.8974  -2.8485  -2.8306
    -2.8205  -2.8016  -2.7894  -2.7877  -2.7787  -2.7247  -2.6513  -2.6435
    -2.6220  -2.6162  -2.6124  -2.6038  -2.5984  -2.4452  -2.1295  -2.0786
    -2.0669  -2.0603  -2.0554  -2.0473  -2.0332  -1.9602  -1.8158  -1.6926
    -1.6859  -1.6673  -1.6543  -1.6513  -1.6459  -1.6000  -1.5584  -1.5503
    -1.5318  -1.4705  -1.2820  -1.1680  -1.1670  -1.1584  -1.1513  -1.1436
    -1.1297  -1.0623  -0.9505  -0.8498  -0.8289  -0.7903  -0.7486  -0.7324
    -0.7237  -0.7126  -0.7069  -0.6988  -0.6907  -0.6847  -0.6669  -0.6540
    -0.6402  -0.6124  -0.5592  -0.5496  -0.5406  -0.5230  -0.5223  -0.5166
    -0.4985  -0.4289  -0.3623  -0.3218  -0.2496  -0.1642  -0.1514  -0.1277
    -0.1087  -0.1052  -0.0953  -0.0880  -0.0596  -0.0365  -0.0116   0.0080
     0.0189   0.0322   0.0415   0.0424   0.0485   0.0626   0.0658   0.0738
     0.0759   0.0835   0.0843   0.0923   0.0980   0.1070   0.1126   0.1243
     0.1334   0.1537   0.2236   0.4482   0.8318   0.8610   0.8798   0.8988
     0.9208   0.9304   0.9354   1.0337   1.1947   1.3020   1.3462   1.3751
     1.4036   1.4119   1.4156   1.4440   1.5120   1.5740   1.6144   1.6475
     1.6795   1.7074   1.7150   1.7359   1.7413   1.8484   1.8599   1.8656
     1.8776   1.8808   1.9094   1.9134   1.9241   1.9436   1.9596   1.9814
     1.9868   1.9965   2.0035   2.0197   2.0782   2.1447   2.1543   2.1669
     2.2043   2.2365   2.2444   2.2551   2.2657   2.2806   2.2901   2.3090
     2.3163   2.3294   2.3440   2.3496   2.3747   2.3818   2.4031   2.4220
     2.5505   2.5960   2.6134   2.6509   2.7344   2.7870   2.8115   2.8299
     2.8515   2.8756   2.8829   2.8861   2.8922   2.8961   2.9006   2.9053
     2.9075   2.9161   2.9228   2.9266   2.9324   2.9345   2.9438   2.9544
     2.9571   2.9627   2.9690   2.9746   2.9786   2.9871   2.9901   2.9922
     2.9989   3.0032   3.0117   3.0262   3.0345   3.0361   3.0568   3.0772
     3.0956   3.1406   3.2111   3.2239   3.2484   3.2634   3.2674   3.2715
     3.2796   3.2960   3.3039   3.3129   3.3167   3.3237   3.3291   3.3368
     3.3431   3.3508   3.3597   3.3641   3.3687   3.3717   3.3778   3.3870
     3.3914   3.4057   3.4254   3.4380   3.4553   3.4819   3.4875   3.4903
     3.5026   3.5134   3.5374   3.5463   3.5755   3.6093   3.6630   3.6808
     3.6986   3.7165   3.7204   3.7282   3.7372   3.7617   3.8666   3.8759
     3.8946   3.9258   3.9463   3.9561   3.9668   3.9701   3.9741   3.9817
     3.9920   4.0030   4.0084   4.0135   4.0193   4.0215   4.0281   4.0366
     4.0392   4.0491   4.0554   4.0633   4.0758   4.0787   4.0861   4.0940
     4.0985   4.0997   4.1096   4.1200   4.1434   4.1596   4.1794   4.2259
     4.2344   4.2667   4.3207   4.3500   4.3770   4.4016   4.4120   4.4190
     4.4227   4.4263   4.4378   4.4415   4.4480   4.4559   4.4580   4.4613
     4.4743   4.4770   4.4784   4.4831   4.4903   4.4976   4.5044   4.5147
     4.5172   4.5250   4.5306   4.5409   4.5571   4.5648   4.5824   4.5865
     4.6248   4.6691   4.6769   4.6923   4.7006   4.7092   4.7214   4.7379
     4.7634   4.7877   4.8129   4.8236   4.8383   4.8437   4.8698   4.9034
     4.9363   5.0067   5.2933   5.3470   5.3611   5.3655   5.3766   5.3906
     5.3947   5.4039   5.4065   5.4145   5.4203   5.4245   5.4271   5.4351
     5.4416   5.4540   5.4616   5.5165   5.6396   5.6621   5.6842   5.7094
     6.3747   6.7293   6.7844   6.9797   7.0552   7.2335   7.2606   7.3252
     7.3598   7.3992   7.4387   7.4557   7.4573   7.4672   7.4763   7.4876
     7.5043   7.5211   7.5281   7.5436   7.5498   7.5743   7.5847   7.6233
     7.7007   7.7440   7.7634   7.7951   7.8097   7.8192   7.8242   7.8336
     7.8469   7.8823   7.8951   7.9187   7.9237   7.9378   7.9898   8.0042
     8.0493   8.0949   8.1061   8.1601   8.2075   8.2129   8.2411   8.2524
     8.2742   8.2826   8.3009   8.3178   8.3270   8.3391   8.3409   8.3438
     8.3558   8.3632   8.3689   8.3769   8.3789   8.3892   8.4016   8.4081
     8.4196   8.4251   8.4265   8.4441   8.4481   8.4628   8.4639   8.4719
     8.4832   8.4914   8.4959   8.5002   8.5144   8.5210   8.5347   8.5426
     8.5478   8.5602   8.5754   8.5811   8.5901   8.5943   8.5966   8.6024

     occupation numbers 
     1.0000   1.0000   1.0000   1.0000   1.0000   1.0000   1.0000   1.0000
     1.0000   1.0000   1.0000   1.0000   1.0000   1.0000   1.0000   1.0000
     1.0000   1.0000   1.0000   1.0000   1.0000   1.0000   1.0000   1.0000
     1.0000   1.0000   1.0000   1.0000   1.0000   1.0000   1.0000   1.0000
     1.0000   1.0000   1.0000   1.0000   1.0000   1.0000   1.0000   1.0000
     1.0000   1.0000   1.0000   1.0000   1.0000   1.0000   1.0000   1.0000
     1.0000   1.0000   1.0000   1.0000   1.0000   1.0000   1.0000   1.0000
     1.0000   1.0000   1.0000   1.0000   1.0000   1.0000   1.0000   1.0000
     1.0000   1.0000   1.0000   1.0000   1.0000   1.0000   1.0000   1.0000
     1.0000   1.0000   1.0000   1.0000   1.0000   1.0000   1.0000   1.0000
     1.0000   1.0000   1.0000   1.0000   1.0000   1.0000   1.0000   1.0000
     1.0000   1.0000   1.0000   1.0000   1.0000   1.0000   1.0000   1.0000
     1.0000   1.0000   1.0000   1.0000   1.0000   1.0000   1.0000   1.0000
     1.0000   1.0000   1.0000   1.0000   1.0000   1.0000   1.0000   1.0000
     1.0000   1.0000   1.0000   1.0000   1.0000   1.0000   1.0000   1.0000
     1.0000   1.0000   1.0000   1.0000   1.0000   1.0000   1.0000   1.0000
     1.0000   1.0000   1.0000   1.0000   1.0000   1.0000   1.0000   1.0000
     1.0000   1.0000   1.0000   1.0000   1.0000   1.0000   1.0000   1.0000
     1.0000   1.0000   1.0000   1.0000   1.0000   1.0000   1.0000   1.0000
     1.0000   1.0000   1.0000   1.0000   1.0000   1.0000   1.0000   1.0000
     1.0000   1.0000   1.0000   1.0000   1.0000   1.0000   1.0000   1.0000
     1.0000   1.0000   1.0000   1.0000   1.0000   1.0000   1.0000   1.0000
     1.0000   1.0000   1.0000   1.0000   1.0000   1.0000   1.0000   1.0000
     1.0000   1.0000   1.0000   1.0000   1.0000   1.0000   1.0000   1.0000
     1.0000   1.0000   1.0000   1.0000   1.0000   1.0000   1.0000   1.0000
     1.0000   1.0000   1.0000   1.0000   1.0000   1.0000   1.0000   1.0000
     1.0000   1.0000   1.0000   1.0000   1.0000   1.0000   1.0000   1.0000
     1.0000   1.0000   1.0000   1.0000   1.0000   1.0000   1.0000   1.0000
     1.0000   1.0000   1.0000   1.0000   1.0000   1.0000   1.0000   1.0000
     1.0000   1.0000   1.0000   1.0000   1.0000   1.0000   1.0000   1.0000
     1.0000   1.0000   1.0000   1.0000   1.0000   1.0000   1.0000   1.0000
     1.0000   1.0000   1.0000   1.0000   1.0000   1.0000   1.0000   1.0000
     1.0000   1.0000   1.0000   1.0000   1.0000   1.0000   1.0000   1.0000
     1.0000   1.0000   1.0000   1.0000   1.0000   1.0000   1.0000   1.0000
     1.0000   1.0000   1.0000   1.0000   1.0000   1.0000   1.0000   1.0000
     1.0000   1.0000   1.0000   1.0000   1.0000   1.0000   1.0000   1.0000
     1.0000   1.0000   1.0000   1.0000   1.0000   1.0000   1.0000   1.0000
     1.0000   1.0000   1.0000   1.0000   1.0000   1.0000   1.0000   1.0000
     1.0000   1.0000   1.0000   1.0000   1.0000   1.0000   1.0000   1.0001
     1.0001   1.0001   1.0001   1.0001   1.0001   1.0001   1.0002   1.0002
     1.0003   1.0003   1.0003   1.0003   1.0004   1.0004   1.0009   1.0010
     1.0011   1.0014   1.0016   1.0017   1.0018   1.0018   1.0019   1.0020
     1.0021   1.0023   1.0023   1.0024   1.0025   1.0025   1.0026   1.0028
     1.0028   1.0030   1.0031   1.0033   1.0035   1.0036   1.0037   1.0039
     1.0040   1.0040   1.0043   1.0045   1.0052   1.0056   1.0063   1.0080
     1.0084   1.0099   1.0128   1.0147   1.0166   1.0184   1.0193   1.0198
     1.0201   1.0204   1.0215   1.0218   1.0224   1.0231   1.0233   1.0236
     1.0248   1.0251   1.0252   1.0257   1.0264   1.0272   1.0279   1.0290
     1.0292   1.0301   1.0307   1.0319   1.0337   1.0346   1.0368   1.0373
     1.0421   1.0480   1.0491   1.0512   1.0524   1.0536   1.0552   1.0575
     1.0610   1.0643   1.0676   1.0689   1.0707   1.0714   1.0743   1.0777
     1.0803   1.0833   1.0290   1.0027   0.9948   0.9923   0.9858   0.9771
     0.9745   0.9686   0.9669   0.9616   0.9576   0.9546   0.9528   0.9471
     0.9425   0.9333   0.9276   0.8829   0.7658   0.7423   0.7189   0.6918
     0.1097   0.0202   0.0149   0.0045   0.0027   0.0007   0.0006   0.0004
     0.0003   0.0002   0.0001   0.0001   0.0001   0.0001   0.0001   0.0001
     0.0001   0.0001   0.0001   0.0001   0.0001   0.0000   0.0000   0.0000
     0.0000   0.0000   0.0000   0.0000   0.0000   0.0000   0.0000   0.0000
     0.0000   0.0000   0.0000   0.0000   0.0000   0.0000   0.0000   0.0000
     0.0000   0.0000   0.0000   0.0000   0.0000   0.0000   0.0000   0.0000
     0.0000   0.0000   0.0000   0.0000   0.0000   0.0000   0.0000   0.0000
     0.0000   0.0000   0.0000   0.0000   0.0000   0.0000   0.0000   0.0000
     0.0000   0.0000   0.0000   0.0000   0.0000   0.0000   0.0000   0.0000
     0.0000   0.0000   0.0000   0.0000   0.0000   0.0000   0.0000   0.0000
     0.0000   0.0000   0.0000   0.0000   0.0000   0.0000   0.0000   0.0000

          k = 0.0000-0.5000-0.5000 (134912 PWs)   bands (ev):

    -5.6945  -5.5993  -5.5870  -5.5633  -5.2582  -5.1914  -5.1374  -5.1175
    -5.1079  -5.1023  -5.0946  -5.0618  -4.7958  -4.7246  -4.6702  -4.6457
    -4.6295  -4.6248  -4.6219  -4.5986  -4.3621  -4.3237  -4.2831  -4.2754
    -4.2473  -4.2285  -4.2255  -4.2219  -4.2143  -4.2098  -4.2083  -4.2034
    -4.2023  -4.1963  -4.1898  -4.1183  -3.9415  -3.8631  -3.8161  -3.7950
    -3.7778  -3.7614  -3.7531  -3.7432  -3.7360  -3.7289  -3.7196  -3.6745
    -3.6291  -3.6180  -3.6061  -3.5858  -3.5779  -3.5726  -3.5706  -3.4982
    -3.2414  -3.2357  -3.1987  -3.1602  -3.1455  -3.1368  -3.1301  -3.1256
    -3.1238  -3.1172  -3.1153  -3.1108  -3.1080  -3.1026  -3.1001  -3.0324
    -2.9291  -2.8773  -2.8538  -2.8318  -2.8247  -2.8187  -2.8093  -2.7831
    -2.7122  -2.6851  -2.6804  -2.6750  -2.6546  -2.6482  -2.6433  -2.6366
    -2.6359  -2.6293  -2.6276  -2.6247  -2.6183  -2.6123  -2.6030  -2.4761
    -2.3934  -2.3478  -2.3365  -2.3262  -2.3196  -2.3177  -2.3053  -2.1492
    -1.8835  -1.8391  -1.8286  -1.7906  -1.5391  -1.4420  -1.4325  -1.4003
    -1.1569  -0.8987  -0.8792  -0.8716  -0.8261  -0.8204  -0.8094  -0.7957
    -0.7764  -0.7505  -0.7342  -0.7289  -0.6625  -0.6471  -0.6398  -0.6283
    -0.6207  -0.6188  -0.6146  -0.6050  -0.5991  -0.5981  -0.5957  -0.5912
    -0.5862  -0.5724  -0.5538  -0.5488  -0.5396  -0.5318  -0.5264  -0.5169
    -0.4908  -0.4788  -0.4750  -0.4573  -0.4563  -0.4407  -0.4314  -0.4269
    -0.4256  -0.4208  -0.4158  -0.4105  -0.4068  -0.3992  -0.3944  -0.3903
    -0.3853  -0.3786  -0.3718  -0.3661  -0.3473  -0.3197  -0.2202   0.0129
     0.4976   0.5306   0.5769   0.6005   0.6199   0.6267   0.6386   0.6479
     0.6588   0.6737   0.6830   0.7084   0.7337   0.7408   0.7789   0.7937
     0.8169   0.8274   0.8325   0.8423   0.8532   0.8559   0.8602   0.8654
     0.8782   0.8990   0.9394   1.1205   1.3678   1.6886   1.7486   1.8579
     1.8982   1.9266   1.9305   1.9388   1.9729   1.9880   2.0393   2.0408
     2.1073   2.1217   2.1377   2.1426   2.1614   2.1718   2.1758   2.1836
     2.1847   2.1864   2.1908   2.1932   2.1978   2.2000   2.2040   2.2126
     2.2159   2.2440   2.2491   2.2522   2.2678   2.2863   2.2928   2.3109
     2.3373   2.3481   2.3716   2.4015   2.4044   2.4535   2.4673   2.4774
     2.4986   2.5135   2.5228   2.5293   2.5345   2.5377   2.5418   2.5544
     2.5617   2.5664   2.5867   2.6162   2.6190   2.6592   2.6643   2.6797
     2.6877   2.6983   2.7253   2.7911   2.8747   2.8776   2.9269   2.9528
     2.9650   2.9793   2.9933   2.9989   3.0212   3.0317   3.0325   3.0370
     3.0494   3.0665   3.0728   3.0812   3.0911   3.0935   3.1037   3.1137
     3.1259   3.1401   3.1547   3.1640   3.1804   3.1892   3.1988   3.2080
     3.2096   3.2218   3.2339   3.2656   3.3542   3.3933   3.4047   3.4149
     3.4371   3.4493   3.4589   3.4668   3.4831   3.4893   3.4964   3.5080
     3.5090   3.5137   3.5163   3.5231   3.5271   3.5347   3.5503   3.5544
     3.5706   3.5918   3.6094   3.6325   3.6500   3.6688   3.6738   3.6815
     3.6858   3.6894   3.6984   3.7056   3.7112   3.7208   3.7226   3.7535
     3.7642   3.7802   3.7943   3.8033   3.8064   3.8213   3.8273   3.8476
     3.8506   3.8635   3.8735   3.8789   3.8937   3.9038   3.9465   3.9710
     4.0518   4.0654   4.0917   4.1051   4.1183   4.1332   4.1395   4.1405
     4.1423   4.1488   4.1569   4.1604   4.1653   4.1736   4.1816   4.2083
     4.2102   4.2238   4.2417   4.2549   4.2727   4.2772   4.3026   4.3277
     4.4201   4.4379   4.4578   4.4816   4.4862   4.4984   4.5171   4.5191
     4.5279   4.5328   4.5577   4.5867   4.6908   4.7248   4.7272   4.7558
     4.7599   4.7751   4.7774   4.7832   4.7879   4.7963   4.7977   4.8044
     4.8091   4.8115   4.8151   4.8179   4.8259   4.8299   4.8402   4.8536
     4.8664   4.8780   4.8840   4.8888   4.8948   4.9085   4.9146   4.9471
     4.9662   4.9894   5.0009   5.0095   5.0222   5.0311   5.0734   5.0925
     5.1369   5.1504   5.1706   5.1755   5.1877   5.1917   5.2164   5.2220
     5.2502   5.3033   5.3087   5.4163   5.9115   5.9616   5.9771   5.9970
     6.4478   6.8312   6.9768   7.0531   7.0713   7.1489   7.2774   7.3094
     7.3386   7.3521   7.3709   7.3858   7.4031   7.4332   7.4560   7.4818
     7.5374   7.5529   7.5540   7.5950   7.6187   7.6741   7.6914   7.7672
     7.7770   7.8403   7.8432   7.8577   7.8645   7.8779   7.8875   7.8904
     7.8959   7.9019   7.9036   7.9206   7.9238   7.9313   7.9391   7.9554
     7.9647   7.9724   7.9814   7.9876   7.9942   8.0081   8.0176   8.0233
     8.0521   8.0566   8.0825   8.0992   8.1039   8.1212   8.1483   8.1515
     8.1646   8.1868   8.1989   8.2289   8.2945   8.3361   8.4071   8.4615
     8.4884   8.5099   8.5189   8.5250   8.5365   8.5470   8.5521   8.5627
     8.5694   8.5864   8.6112   8.6239   8.6577   8.6641   8.6737   8.6828
     8.6961   8.7011   8.7061   8.7085   8.7131   8.7160   8.7220   8.7246

     occupation numbers 
     1.0000   1.0000   1.0000   1.0000   1.0000   1.0000   1.0000   1.0000
     1.0000   1.0000   1.0000   1.0000   1.0000   1.0000   1.0000   1.0000
     1.0000   1.0000   1.0000   1.0000   1.0000   1.0000   1.0000   1.0000
     1.0000   1.0000   1.0000   1.0000   1.0000   1.0000   1.0000   1.0000
     1.0000   1.0000   1.0000   1.0000   1.0000   1.0000   1.0000   1.0000
     1.0000   1.0000   1.0000   1.0000   1.0000   1.0000   1.0000   1.0000
     1.0000   1.0000   1.0000   1.0000   1.0000   1.0000   1.0000   1.0000
     1.0000   1.0000   1.0000   1.0000   1.0000   1.0000   1.0000   1.0000
     1.0000   1.0000   1.0000   1.0000   1.0000   1.0000   1.0000   1.0000
     1.0000   1.0000   1.0000   1.0000   1.0000   1.0000   1.0000   1.0000
     1.0000   1.0000   1.0000   1.0000   1.0000   1.0000   1.0000   1.0000
     1.0000   1.0000   1.0000   1.0000   1.0000   1.0000   1.0000   1.0000
     1.0000   1.0000   1.0000   1.0000   1.0000   1.0000   1.0000   1.0000
     1.0000   1.0000   1.0000   1.0000   1.0000   1.0000   1.0000   1.0000
     1.0000   1.0000   1.0000   1.0000   1.0000   1.0000   1.0000   1.0000
     1.0000   1.0000   1.0000   1.0000   1.0000   1.0000   1.0000   1.0000
     1.0000   1.0000   1.0000   1.0000   1.0000   1.0000   1.0000   1.0000
     1.0000   1.0000   1.0000   1.0000   1.0000   1.0000   1.0000   1.0000
     1.0000   1.0000   1.0000   1.0000   1.0000   1.0000   1.0000   1.0000
     1.0000   1.0000   1.0000   1.0000   1.0000   1.0000   1.0000   1.0000
     1.0000   1.0000   1.0000   1.0000   1.0000   1.0000   1.0000   1.0000
     1.0000   1.0000   1.0000   1.0000   1.0000   1.0000   1.0000   1.0000
     1.0000   1.0000   1.0000   1.0000   1.0000   1.0000   1.0000   1.0000
     1.0000   1.0000   1.0000   1.0000   1.0000   1.0000   1.0000   1.0000
     1.0000   1.0000   1.0000   1.0000   1.0000   1.0000   1.0000   1.0000
     1.0000   1.0000   1.0000   1.0000   1.0000   1.0000   1.0000   1.0000
     1.0000   1.0000   1.0000   1.0000   1.0000   1.0000   1.0000   1.0000
     1.0000   1.0000   1.0000   1.0000   1.0000   1.0000   1.0000   1.0000
     1.0000   1.0000   1.0000   1.0000   1.0000   1.0000   1.0000   1.0000
     1.0000   1.0000   1.0000   1.0000   1.0000   1.0000   1.0000   1.0000
     1.0000   1.0000   1.0000   1.0000   1.0000   1.0000   1.0000   1.0000
     1.0000   1.0000   1.0000   1.0000   1.0000   1.0000   1.0000   1.0000
     1.0000   1.0000   1.0000   1.0000   1.0000   1.0000   1.0000   1.0000
     1.0000   1.0000   1.0000   1.0000   1.0000   1.0000   1.0000   1.0000
     1.0000   1.0000   1.0000   1.0000   1.0000   1.0000   1.0000   1.0000
     1.0000   1.0000   1.0000   1.0000   1.0000   1.0000   1.0000   1.0000
     1.0000   1.0000   1.0000   1.0000   1.0000   1.0000   1.0000   1.0000
     1.0000   1.0000   1.0000   1.0000   1.0000   1.0001   1.0001   1.0001
     1.0001   1.0001   1.0001   1.0001   1.0001   1.0001   1.0001   1.0001
     1.0001   1.0001   1.0001   1.0002   1.0002   1.0002   1.0002   1.0002
     1.0002   1.0003   1.0003   1.0003   1.0003   1.0003   1.0003   1.0004
     1.0004   1.0005   1.0006   1.0006   1.0006   1.0007   1.0007   1.0008
     1.0008   1.0009   1.0010   1.0010   1.0011   1.0012   1.0016   1.0018
     1.0030   1.0033   1.0038   1.0041   1.0045   1.0049   1.0050   1.0051
     1.0051   1.0053   1.0056   1.0057   1.0058   1.0061   1.0064   1.0073
     1.0074   1.0079   1.0087   1.0093   1.0102   1.0104   1.0117   1.0132
     1.0199   1.0215   1.0233   1.0255   1.0260   1.0273   1.0292   1.0294
     1.0304   1.0310   1.0338   1.0373   1.0510   1.0557   1.0560   1.0600
     1.0605   1.0626   1.0629   1.0637   1.0643   1.0654   1.0656   1.0665
     1.0671   1.0674   1.0678   1.0682   1.0692   1.0697   1.0709   1.0725
     1.0739   1.0752   1.0758   1.0763   1.0769   1.0781   1.0787   1.0810
     1.0821   1.0829   1.0832   1.0833   1.0833   1.0832   1.0815   1.0800
     1.0745   1.0722   1.0683   1.0672   1.0644   1.0635   1.0568   1.0552
     1.0460   1.0245   1.0220   0.9603   0.4701   0.4177   0.4021   0.3821
     0.0808   0.0113   0.0046   0.0027   0.0024   0.0014   0.0005   0.0004
     0.0003   0.0003   0.0003   0.0002   0.0002   0.0002   0.0001   0.0001
     0.0001   0.0001   0.0001   0.0000   0.0000   0.0000   0.0000   0.0000
     0.0000   0.0000   0.0000   0.0000   0.0000   0.0000   0.0000   0.0000
     0.0000   0.0000   0.0000   0.0000   0.0000   0.0000   0.0000   0.0000
     0.0000   0.0000   0.0000   0.0000   0.0000   0.0000   0.0000   0.0000
     0.0000   0.0000   0.0000   0.0000   0.0000   0.0000   0.0000   0.0000
     0.0000   0.0000   0.0000   0.0000   0.0000   0.0000   0.0000   0.0000
     0.0000   0.0000   0.0000   0.0000   0.0000   0.0000   0.0000   0.0000
     0.0000   0.0000   0.0000   0.0000   0.0000   0.0000   0.0000   0.0000
     0.0000   0.0000   0.0000   0.0000   0.0000   0.0000   0.0000   0.0000

          k =-0.5000-0.5000-0.5000 (134688 PWs)   bands (ev):

    -5.6346  -5.5233  -5.4959  -5.4779  -5.4615  -5.4536  -5.4413  -5.4150
    -4.8319  -4.7616  -4.6434  -4.6014  -4.5969  -4.5609  -4.5522  -4.5437
    -4.5340  -4.5336  -4.5316  -4.5254  -4.5244  -4.5205  -4.5187  -4.5157
    -4.5149  -4.5136  -4.5103  -4.5083  -4.5058  -4.4959  -4.4873  -4.3572
    -3.9162  -3.8826  -3.8625  -3.8123  -3.7751  -3.7614  -3.7589  -3.7444
    -3.7377  -3.7301  -3.7275  -3.7229  -3.7199  -3.7186  -3.7177  -3.7162
    -3.7137  -3.7122  -3.7078  -3.7042  -3.7008  -3.6879  -3.6659  -3.5756
    -3.5171  -3.5118  -3.5053  -3.4448  -3.0470  -2.9546  -2.8944  -2.8524
    -2.8224  -2.7945  -2.7893  -2.7850  -2.7824  -2.7796  -2.7732  -2.7690
    -2.7674  -2.7631  -2.7608  -2.7579  -2.7543  -2.7538  -2.7506  -2.7491
    -2.7443  -2.7368  -2.7025  -2.6765  -2.6316  -2.6211  -2.6078  -2.5993
    -2.5896  -2.5844  -2.5799  -2.5733  -2.5715  -2.5698  -2.5662  -2.5636
    -2.5620  -2.5601  -2.5581  -2.5539  -2.5528  -2.5504  -2.5491  -2.5436
    -2.5409  -2.5300  -2.4850  -2.1002  -1.3051  -0.9708  -0.9368  -0.9015
    -0.8621  -0.8417  -0.8083  -0.7950  -0.7698  -0.7636  -0.7503  -0.7476
    -0.7398  -0.7329  -0.7300  -0.7246  -0.7235  -0.7226  -0.7161  -0.7131
    -0.7096  -0.7060  -0.7034  -0.6937  -0.6932  -0.6734  -0.6525  -0.6093
    -0.5547  -0.5195  -0.5144  -0.4924  -0.4850  -0.4785  -0.4672  -0.4641
    -0.4600  -0.4577  -0.4523  -0.4498  -0.4464  -0.4439  -0.4428  -0.4379
    -0.4347  -0.4339  -0.4302  -0.4264  -0.4234  -0.4206  -0.3300  -0.1920
    -0.0763  -0.0294   0.0181   0.0425   0.0560   0.0723   0.0964   0.1024
     0.1067   0.1079   0.1128   0.1159   0.1191   0.1214   0.1239   0.1294
     0.1312   0.1352   0.1405   0.1556   0.1635   0.2049   0.2933   0.5392
     1.1675   1.3883   1.4254   1.5026   1.5404   1.5754   1.6279   1.6452
     1.6498   1.6579   1.6607   1.6653   1.6718   1.6779   1.6823   1.6851
     1.6870   1.6894   1.6917   1.6922   1.6996   1.7025   1.7234   1.7651
     1.8524   1.9425   2.0369   2.0646   2.0777   2.0862   2.0872   2.0957
     2.0988   2.1050   2.1065   2.1164   2.1204   2.1244   2.1273   2.1289
     2.1389   2.1423   2.1502   2.1572   2.1708   2.1810   2.2170   2.2335
     2.3257   2.3720   2.3803   2.4117   2.4209   2.4520   2.4572   2.4636
     2.4735   2.4804   2.4886   2.4911   2.4947   2.5008   2.5120   2.5124
     2.5177   2.5274   2.5354   2.5388   2.5538   2.5626   2.6094   2.6270
     2.8185   2.8616   2.8852   2.9376   2.9966   3.0101   3.0245   3.0371
     3.0425   3.0494   3.0606   3.0675   3.0729   3.0743   3.0807   3.0827
[...]
     atom   31 type  1   force =    -0.00000951    0.00000760    0.00000331
     atom   32 type  1   force =    -0.00000365    0.00000127   -0.00000642
     atom   33 type  1   force =    -0.00000526    0.00000470   -0.00000718
     atom   34 type  1   force =    -0.00000828    0.00000424    0.00000002
     atom   35 type  1   force =    -0.00000627    0.00000423   -0.00000169
     atom   36 type  1   force =    -0.00000085   -0.00000164   -0.00000097
     atom   37 type  1   force =     0.00000053   -0.00000136    0.00000020
     atom   38 type  1   force =    -0.00000198    0.00000614   -0.00000967
     atom   39 type  1   force =    -0.00000241    0.00000535   -0.00000869
     atom   40 type  1   force =    -0.00000115   -0.00000609    0.00000219
     atom   41 type  1   force =     0.00000051   -0.00000617    0.00000278
     atom   42 type  1   force =     0.00000132   -0.00000062   -0.00000315
     atom   43 type  1   force =     0.00000191   -0.00000099   -0.00000341
     atom   44 type  1   force =    -0.00000205   -0.00000597    0.00000144
     atom   45 type  1   force =    -0.00000114   -0.00000489   -0.00000104
     atom   46 type  1   force =    -0.00000309   -0.00000321    0.00000625
     atom   47 type  1   force =    -0.00000550   -0.00000224    0.00000401
     atom   48 type  1   force =    -0.00000396   -0.00000115    0.00001088
     atom   49 type  1   force =    -0.00000356    0.00000032    0.00001216
     atom   50 type  1   force =    -0.00000125    0.00000449    0.00000477
     atom   51 type  1   force =     0.00000194    0.00000332    0.00000427
     atom   52 type  1   force =    -0.00000772    0.00000559    0.00000844
     atom   53 type  1   force =    -0.00000670    0.00000496    0.00000227
     atom   54 type  1   force =     0.00000059   -0.00000682    0.00001551
     atom   55 type  1   force =    -0.00000283   -0.00000585    0.00000282
     atom   56 type  1   force =    -0.00000919    0.00000806   -0.00000568
     atom   57 type  1   force =    -0.00000706    0.00000323   -0.00000666
     atom   58 type  1   force =    -0.00000777   -0.00000136   -0.00000189
     atom   59 type  1   force =    -0.00000671   -0.00000219   -0.00000539
     atom   60 type  1   force =    -0.00000591    0.00000406   -0.00000693
     atom   61 type  1   force =    -0.00000336   -0.00000007   -0.00000457
     atom   62 type  1   force =    -0.00000582    0.00000011   -0.00000920
     atom   63 type  1   force =    -0.00000514   -0.00000184   -0.00000590
     atom   64 type  1   force =    -0.00000240    0.00000726   -0.00000706
     atom   65 type  1   force =    -0.00000536    0.00000467   -0.00000487
     atom   66 type  1   force =    -0.00000557    0.00000302   -0.00000616
     atom   67 type  1   force =    -0.00000250    0.00000383    0.00000079
     atom   68 type  1   force =    -0.00000087    0.00000216    0.00000020
     atom   69 type  1   force =     0.00000130    0.00000367    0.00000403
     atom   70 type  1   force =     0.00000079    0.00000685   -0.00000350
     atom   71 type  1   force =     0.00000155    0.00000617   -0.00000166
     atom   72 type  1   force =    -0.00000213    0.00000052    0.00000438
     atom   73 type  1   force =    -0.00000004   -0.00000518    0.00000073
     atom   74 type  1   force =     0.00000059   -0.00000253   -0.00000210
     atom   75 type  1   force =     0.00000681   -0.00000482   -0.00000065
     atom   76 type  1   force =     0.00000301   -0.00000723    0.00000061
     atom   77 type  1   force =     0.00000478   -0.00000521    0.00000370
     atom   78 type  1   force =    -0.00000229   -0.00000785    0.00000052
     atom   79 type  1   force =     0.00000304   -0.00000665    0.00000198
     atom   80 type  1   force =    -0.00000023   -0.00000171   -0.00000543
     atom   81 type  1   force =     0.00000499   -0.00000157   -0.00000379
     atom   82 type  1   force =     0.00000444   -0.00000522    0.00000125
     atom   83 type  1   force =     0.00000453   -0.00000420    0.00000105
     atom   84 type  1   force =     0.00000721    0.00000107   -0.00000550
     atom   85 type  1   force =     0.00000630    0.00000126   -0.00000303
     atom   86 type  1   force =     0.00000077   -0.00000095   -0.00000037
     atom   87 type  1   force =     0.00000339   -0.00000211    0.00000003
     atom   88 type  1   force =    -0.00000013    0.00000373    0.00000002
     atom   89 type  1   force =     0.00000259    0.00000188    0.00000175
     atom   90 type  1   force =     0.00000403    0.00000057    0.00000139
     atom   91 type  1   force =     0.00000427   -0.00000416    0.00000004
     atom   92 type  1   force =     0.00000240    0.00000271    0.00000234
     atom   93 type  1   force =     0.00000306   -0.00000199    0.00000047
     atom   94 type  1   force =     0.00000067   -0.00000065    0.00000148
     atom   95 type  1   force =     0.00000172   -0.00000553   -0.00000208
     atom   96 type  1   force =    -0.00000149   -0.00000511   -0.00000269
     atom   97 type  1   force =     0.00000324    0.00000019   -0.00000242
     atom   98 type  1   force =     0.00000620    0.00000146   -0.00000103
     atom   99 type  1   force =     0.00001174    0.00000811    0.00000110
     atom  100 type  1   force =     0.00000488   -0.00000300    0.00000040
     atom  101 type  1   force =     0.00000881    0.00000217    0.00000085
     atom  102 type  1   force =    -0.00000160    0.00000334    0.00000201
     atom  103 type  1   force =     0.00000278    0.00000681    0.00000086
     atom  104 type  1   force =    -0.00000080   -0.00000285    0.00000278
     atom  105 type  1   force =     0.00000196   -0.00000211    0.00000192
     atom  106 type  1   force =     0.00000640    0.00000326    0.00000077
     atom  107 type  1   force =     0.00000722    0.00000523   -0.00000499
     atom  108 type  1   force =     0.00000465   -0.00000411    0.00000017
     atom  109 type  1   force =     0.00000429   -0.00000305    0.00000039
     atom  110 type  1   force =    -0.00000060    0.00000170   -0.00000076
     atom  111 type  1   force =     0.00000089    0.00000082   -0.00000038
     atom  112 type  1   force =     0.00000027   -0.00000356    0.00000053
     atom  113 type  1   force =     0.00000298   -0.00000146    0.00000063
     atom  114 type  1   force =     0.00000596   -0.00000161    0.00000003
     atom  115 type  1   force =     0.00000420   -0.00000258   -0.00000013
     atom  116 type  1   force =     0.00000672   -0.00000121   -0.00000107
     atom  117 type  1   force =     0.00000157   -0.00000425   -0.00000015
     atom  118 type  1   force =     0.00000741    0.00000365    0.00000042
     atom  119 type  1   force =     0.00000081    0.00000456    0.00000307
     atom  120 type  1   force =     0.00000706    0.00000782    0.00000295
     atom  121 type  1   force =     0.00000256    0.00000104    0.00000526
     atom  122 type  1   force =     0.00000206   -0.00000188    0.00000847
     atom  123 type  1   force =     0.00001098    0.00000982    0.00000229
     atom  124 type  1   force =     0.00000716    0.00000166   -0.00000248
     atom  125 type  1   force =     0.00000014    0.00000412    0.00000192
     atom  126 type  1   force =     0.00000336   -0.00000012   -0.00000155
     atom  127 type  1   force =    -0.00000223    0.00000554   -0.00000113
     atom  128 type  1   force =     0.00000278    0.00000251   -0.00000559
     atom  129 type  1   force =     0.00000719    0.00000188   -0.00000443
     atom  130 type  1   force =     0.00000629   -0.00000150   -0.00000434
     atom  131 type  1   force =     0.00000489    0.00000239   -0.00000326
     atom  132 type  1   force =     0.00000693    0.00000101   -0.00000588
     atom  133 type  1   force =    -0.00000278    0.00000105   -0.00000507
     atom  134 type  1   force =     0.00000159    0.00000084   -0.00000173
     atom  135 type  1   force =     0.00000002    0.00000025   -0.00000455
     atom  136 type  1   force =     0.00000299    0.00000126   -0.00000021
     atom  137 type  1   force =     0.00000310    0.00000143   -0.00000037
     atom  138 type  1   force =     0.00000599    0.00000045    0.00000320
     atom  139 type  1   force =     0.00000551   -0.00000088    0.00000264
     atom  140 type  1   force =     0.00000611    0.00000433    0.00000896
     atom  141 type  1   force =     0.00000160    0.00000305    0.00000161
     atom  142 type  1   force =     0.00000475    0.00000024    0.00000612
     atom  143 type  1   force =    -0.00000205    0.00000123    0.00000171
     atom  144 type  1   force =    -0.00000048   -0.00000009    0.00000201
     atom  145 type  1   force =     0.00000042    0.00000487   -0.00000472
     atom  146 type  1   force =     0.00000065    0.00000283    0.00000070
     atom  147 type  1   force =    -0.00000436   -0.00000926    0.00001183
     atom  148 type  1   force =    -0.00000309   -0.00000435    0.00000065
     atom  149 type  1   force =     0.00000212   -0.00000095    0.00000038
     atom  150 type  1   force =     0.00000411   -0.00000079    0.00000061
     atom  151 type  1   force =     0.00000322   -0.00000542    0.00000037
     atom  152 type  1   force =    -0.00000011   -0.00000513   -0.00000186
     atom  153 type  1   force =     0.00000025   -0.00000079    0.00000046
     atom  154 type  1   force =    -0.00000428   -0.00000423   -0.00000702
     atom  155 type  1   force =    -0.00000140   -0.00000565   -0.00000232
     atom  156 type  1   force =    -0.00000448   -0.00000508   -0.00000091
     atom  157 type  1   force =     0.00000143   -0.00000293   -0.00000076
     atom  158 type  1   force =    -0.00000273   -0.00000387   -0.00000045
     atom  159 type  1   force =     0.00000656    0.00000308   -0.00000225
     atom  160 type  1   force =     0.00000170    0.00000149   -0.00000162
     atom  161 type  1   force =    -0.00000287   -0.00000533    0.00000185
     atom  162 type  1   force =    -0.00000337   -0.00000648    0.00000541
     atom  163 type  1   force =    -0.00000077    0.00000452   -0.00000195
     atom  164 type  1   force =     0.00000150    0.00000700   -0.00000416
     atom  165 type  1   force =     0.00000296    0.00000053   -0.00000231
     atom  166 type  1   force =     0.00000380   -0.00000266    0.00000084
     atom  167 type  1   force =     0.00000574   -0.00000007   -0.00000190
     atom  168 type  1   force =     0.00000609    0.00000347    0.00000192
     atom  169 type  1   force =    -0.00000202   -0.00000287    0.00000724
     atom  170 type  1   force =    -0.00000490    0.00000046    0.00001082
     atom  171 type  1   force =     0.00000304    0.00000174   -0.00000007
     atom  172 type  1   force =    -0.00000164    0.00000432   -0.00000269
     atom  173 type  1   force =     0.00001001    0.00000595    0.00000048
     atom  174 type  1   force =     0.00000639    0.00000810   -0.00000124
     atom  175 type  1   force =     0.00000484   -0.00000181    0.00000086
     atom  176 type  1   force =     0.00000165    0.00000146   -0.00000378
     atom  177 type  1   force =     0.00000212    0.00000576   -0.00000662
     atom  178 type  1   force =    -0.00000131    0.00000911   -0.00001041
     atom  179 type  1   force =    -0.00000307   -0.00000181   -0.00000358
     atom  180 type  1   force =    -0.00000525   -0.00000042   -0.00000467
     atom  181 type  1   force =     0.00000360    0.00000003   -0.00000360
     atom  182 type  1   force =    -0.00000003    0.00000362   -0.00000434
     atom  183 type  1   force =     0.00000083   -0.00000406    0.00000035
     atom  184 type  1   force =    -0.00000301   -0.00000345    0.00000393
     atom  185 type  1   force =    -0.00000407   -0.00000010   -0.00000155
     atom  186 type  1   force =    -0.00000470    0.00000287    0.00000025
     atom  187 type  1   force =    -0.00000323   -0.00000395    0.00000354
     atom  188 type  1   force =    -0.00000381   -0.00000388    0.00000702
     atom  189 type  1   force =    -0.00000043   -0.00000257    0.00000135
     atom  190 type  1   force =    -0.00000222    0.00000097    0.00000840
     atom  191 type  1   force =     0.00000440    0.00000222    0.00000887
     atom  192 type  1   force =    -0.00000108   -0.00000372    0.00000930
     atom  193 type  1   force =    -0.00000388   -0.00000278    0.00000356
     atom  194 type  1   force =     0.00000584    0.00000865   -0.00000363
     atom  195 type  1   force =    -0.00000124    0.00000042    0.00000984
     atom  196 type  1   force =    -0.00000098   -0.00000471    0.00000924
     atom  197 type  1   force =     0.00000202   -0.00000022    0.00000669
     atom  198 type  1   force =    -0.00000696   -0.00001093    0.00001289
     atom  199 type  1   force =     0.00000861    0.00000670   -0.00000517
     atom  200 type  1   force =     0.00000709    0.00000286   -0.00000839
     atom  201 type  1   force =    -0.00000065   -0.00000426   -0.00000047
     atom  202 type  1   force =    -0.00000286   -0.00000729   -0.00000126
     atom  203 type  1   force =     0.00000045    0.00000862   -0.00001205
     atom  204 type  1   force =    -0.00000122    0.00000596   -0.00000928
     atom  205 type  1   force =     0.00000741    0.00000136   -0.00000930
     atom  206 type  1   force =     0.00000541    0.00000228   -0.00000679
     atom  207 type  1   force =     0.00000112    0.00000020   -0.00000306
     atom  208 type  1   force =    -0.00000094    0.00000518    0.00000058
     atom  209 type  1   force =     0.00000140    0.00000500   -0.00000720
     atom  210 type  1   force =    -0.00000102    0.00000446   -0.00000583
     atom  211 type  1   force =    -0.00000245    0.00000278    0.00000464
     atom  212 type  1   force =    -0.00001003    0.00000015    0.00000412
     atom  213 type  1   force =     0.00000172    0.00000188    0.00000179
     atom  214 type  1   force =     0.00000066    0.00000014   -0.00000024
     atom  215 type  2   force =    -0.00000122   -0.00000209    0.00000006
     atom  216 type  2   force =    -0.00000089    0.00000088    0.00000073
     atom  217 type  2   force =     0.00000207   -0.00000031    0.00000122
     atom  218 type  2   force =    -0.00000160   -0.00000016    0.00000152
     atom  219 type  2   force =     0.00000113    0.00000048    0.00000148
     atom  220 type  2   force =     0.00000027    0.00000103    0.00000211
     atom  221 type  2   force =    -0.00000068    0.00000045    0.00000176
     atom  222 type  2   force =     0.00000220    0.00000094    0.00000057
     atom  223 type  2   force =    -0.00000150   -0.00000241    0.00000227

     Total force =     0.101883     Total SCF correction =     0.000110


     Computing stress (Cartesian axis) and pressure

          total   stress  (Ry/bohr**3)                   (kbar)     P=   11.99
   0.00007650   0.00000359   0.00001169         11.25      0.53      1.72
   0.00000359   0.00008139  -0.00000733          0.53     11.97     -1.08
   0.00001169  -0.00000733   0.00008664          1.72     -1.08     12.74

     kinetic stress (kbar)   2272.76      0.70      0.11
                                0.70   2272.24     -2.64
                                0.11     -2.64   2273.44

     local   stress (kbar)  -1221.90     14.27      0.86
                               14.27  -1223.41     -7.95
                                0.86     -7.95  -1212.45

     nonloc. stress (kbar)   2562.48     -0.45     -0.11
                               -0.45   2561.43     -0.46
                               -0.11     -0.46   2561.41

     hartree stress (kbar)    204.70     -3.81     -0.12
                               -3.81    206.04      1.87
                               -0.12      1.87    202.85

     exc-cor stress (kbar)   -803.66     -0.07     -0.01
                               -0.07   -803.63      0.06
                               -0.01      0.06   -803.67

     corecor stress (kbar)      0.00      0.00      0.00
                                0.00      0.00      0.00
                                0.00      0.00      0.00

     ewald   stress (kbar)  -3003.12    -10.11      0.98
                              -10.11  -3000.70      8.06
                                0.98      8.06  -3008.84

     hubbard stress (kbar)      0.00      0.00      0.00
                                0.00      0.00      0.00
                                0.00      0.00      0.00

     london  stress (kbar)      0.00      0.00      0.00
                                0.00      0.00      0.00
                                0.00      0.00      0.00

     DFT-D3  stress (kbar)      0.00      0.00      0.00
                                0.00      0.00      0.00
                                0.00      0.00      0.00

     XDM     stress (kbar)      0.00      0.00      0.00
                                0.00      0.00      0.00
                                0.00      0.00      0.00

     dft-nl  stress (kbar)      0.00      0.00      0.00
                                0.00      0.00      0.00
                                0.00      0.00      0.00

     TS-vdW  stress (kbar)      0.00      0.00      0.00
                                0.00      0.00      0.00
                                0.00      0.00      0.00



     Writing output data file divacancy_optimize2.save

     init_run     :    241.60s CPU    248.89s WALL (       1 calls)
     electrons    :   9249.97s CPU   9542.89s WALL (       1 calls)
     forces       :     83.03s CPU     83.63s WALL (       1 calls)
     stress       :    783.41s CPU    786.87s WALL (       1 calls)

     Called by init_run:
     wfcinit      :    238.15s CPU    245.36s WALL (       1 calls)
     wfcinit:atom :      0.78s CPU      1.56s WALL (       8 calls)
     wfcinit:wfcr :    226.62s CPU    232.24s WALL (       8 calls)
     potinit      :      0.42s CPU      0.44s WALL (       1 calls)

     Called by electrons:
     c_bands      :   8610.53s CPU   8878.29s WALL (      19 calls)
     sum_band     :    633.51s CPU    656.83s WALL (      19 calls)
     v_of_rho     :      5.00s CPU      5.16s WALL (      19 calls)
     v_h          :      0.32s CPU      0.33s WALL (      19 calls)
     v_xc         :      4.68s CPU      4.83s WALL (      19 calls)
     mix_rho      :      0.99s CPU      1.19s WALL (      19 calls)

     Called by c_bands:
     init_us_2    :     27.80s CPU     29.64s WALL (     328 calls)
     cegterg      :   8550.46s CPU   8777.74s WALL (     152 calls)

     Called by sum_band:

     Called by *egterg:
     h_psi        :   4555.97s CPU   4658.98s WALL (     974 calls)
     g_psi        :     12.00s CPU     12.01s WALL (     814 calls)
     cdiaghg      :   1624.12s CPU   1626.78s WALL (     958 calls)
     cegterg:over :   1048.36s CPU   1056.19s WALL (     814 calls)
     cegterg:upda :    690.39s CPU    697.06s WALL (     814 calls)
     cegterg:last :    381.34s CPU    384.77s WALL (     152 calls)

     Called by h_psi:
     h_psi:pot    :   4534.79s CPU   4635.33s WALL (     974 calls)
     h_psi:calbec :    870.07s CPU    878.48s WALL (     974 calls)
     vloc_psi     :   2808.99s CPU   2898.90s WALL (     974 calls)
     add_vuspsi   :    855.71s CPU    857.94s WALL (     974 calls)

     General routines
     calbec       :    963.80s CPU    972.53s WALL (    1014 calls)
     fft          :      2.92s CPU      3.13s WALL (     218 calls)
     fftw         :   3048.51s CPU   3155.67s WALL (  464498 calls)

     Parallel routines
     fft_scatt_xy :    452.77s CPU    454.18s WALL (  464716 calls)
     fft_scatt_yz :    527.51s CPU    625.63s WALL (  464716 calls)

     PWSCF        :     2h52m CPU        2h57m WALL


   This run was terminated on:  11:10:11   7Nov2020            

=------------------------------------------------------------------------------=
   JOB DONE.
=------------------------------------------------------------------------------=
