
     Program PWSCF v.6.2 (svn rev. 14038) starts on  7Nov2020 at  8:36:23 

     This program is part of the open-source Quantum ESPRESSO suite
     for quantum simulation of materials; please cite
         "P. Giannozzi et al., J. Phys.:Condens. Matter 21 395502 (2009);
         "P. Giannozzi et al., J. Phys.:Condens. Matter 29 465901 (2017);
          URL http://www.quantum-espresso.org", 
     in publications or presentations arising from this work. More details at
     http://www.quantum-espresso.org/quote

     Parallel version (MPI), running on     8 processors

     MPI processes distributed on     1 nodes
     R & G space division:  proc/nbgrp/npool/nimage =       8
     Waiting for input...
     Reading input from standard input
Warning: card &IONS ignored
Warning: card / ignored

     Current dimensions of program PWSCF are:
     Max number of different atomic species (ntypx) = 10
     Max number of k-points (npk) =  40000
     Max angular momentum in pseudopotentials (lmaxx) =  3

     Subspace diagonalization in iterative solution of the eigenvalue problem:
     a serial algorithm will be used


     Parallelization info
     --------------------
     sticks:   dense  smooth     PW     G-vecs:    dense   smooth      PW
     Min        1589    1589    419               134811   134811   18265
     Max        1590    1590    420               134814   134814   18266
     Sum       12717   12717   3357              1078507  1078507  146125



     bravais-lattice index     =            0
     lattice parameter (alat)  =      30.8403  a.u.
     unit-cell volume          =   29332.9180 (a.u.)^3
     number of atoms/cell      =          222
     number of atomic types    =            2
     number of electrons       =       864.00
     number of Kohn-Sham states=          518
     kinetic-energy cutoff     =      42.0000  Ry
     charge density cutoff     =     168.0000  Ry
     convergence threshold     =      1.0E-08
     mixing beta               =       0.3000
     number of iterations used =            8  plain     mixing
     Exchange-correlation      = SLA-PW-PBX-PBC ( 1  4  3  4 0 0)

     celldm(1)=  30.840288  celldm(2)=   0.000000  celldm(3)=   0.000000
     celldm(4)=   0.000000  celldm(5)=   0.000000  celldm(6)=   0.000000

     crystal axes: (cart. coord. in units of alat)
               a(1) = (   1.000000   0.000000   0.000000 )  
               a(2) = (   0.000000   1.000000   0.000000 )  
               a(3) = (   0.000000   0.000000   1.000000 )  

     reciprocal axes: (cart. coord. in units 2 pi/alat)
               b(1) = (  1.000000  0.000000  0.000000 )  
               b(2) = (  0.000000  1.000000  0.000000 )  
               b(3) = (  0.000000  0.000000  1.000000 )  


     PseudoPot. # 1 for Si read from file:
     ./Si.pbe-hgh.UPF
     MD5 check sum: 9a9f0f6e09139bfdb36b03ff6bc35900
     Pseudo is Norm-conserving, Zval =  4.0
     Generated in analytical, separable form
     Using radial grid of 1141 points,  3 beta functions with: 
                l(1) =   0
                l(2) =   0
                l(3) =   1

     PseudoPot. # 2 for H  read from file:
     ./H.pbe-hgh.UPF
     MD5 check sum: 5f350582108a937bec95f27f5610ab08
     Pseudo is Norm-conserving, Zval =  1.0
     Generated in analytical, separable form
     Using radial grid of  929 points,  0 beta functions with: 

     atomic species   valence    mass     pseudopotential
        Si             4.00    28.08000     Si( 1.00)
        H              1.00     1.00784     H ( 1.00)

     No symmetry found


                                    s                        frac. trans.

      isym =  1     identity                                     

 cryst.   s( 1) = (     1          0          0      )
                  (     0          1          0      )
                  (     0          0          1      )

 cart.    s( 1) = (  1.0000000  0.0000000  0.0000000 )
                  (  0.0000000  1.0000000  0.0000000 )
                  (  0.0000000  0.0000000  1.0000000 )


   Cartesian axes

     site n.     atom                  positions (alat units)
         1           Si  tau(   1) = (   0.0907263   0.0869368   0.0871850  )
         2           Si  tau(   2) = (   0.1686830   0.1692860   0.9994910  )
         3           Si  tau(   3) = (   0.2511620   0.2518050   0.0831679  )
         4           Si  tau(   4) = (   0.1696100   0.0002299   0.1694820  )
         5           Si  tau(   5) = (   0.2513800   0.0846012   0.2513160  )
         6           Si  tau(   6) = (   0.0000922   0.1665280   0.1652840  )
         7           Si  tau(   7) = (   0.0833447   0.2495850   0.2491140  )
         8           Si  tau(   8) = (   0.9998210   0.0007000   0.3336920  )
         9           Si  tau(   9) = (   0.0831843   0.0840503   0.4165810  )
        10           Si  tau(  10) = (   0.1665010   0.1671640   0.3332990  )
        11           Si  tau(  11) = (   0.2496800   0.2506150   0.4165300  )
        12           Si  tau(  12) = (   0.1663310   0.0001967   0.4994920  )
        13           Si  tau(  13) = (   0.2494550   0.0830707   0.5828710  )
        14           Si  tau(  14) = (   0.9996950   0.1674670   0.4995450  )
        15           Si  tau(  15) = (   0.0830077   0.2501640   0.5831740  )
        16           Si  tau(  16) = (   0.0002527   0.0000836   0.6657540  )
        17           Si  tau(  17) = (   0.0814269   0.0840368   0.7496180  )
        18           Si  tau(  18) = (   0.1651510   0.1655410   0.6660750  )
        19           Si  tau(  19) = (   0.2487210   0.2493620   0.7481260  )
        20           Si  tau(  20) = (   0.1684300   0.0053483   0.8322350  )
        21           Si  tau(  21) = (   0.2520260   0.0860576   0.9170440  )
        22           Si  tau(  22) = (   0.0003212   0.1663680   0.8351360  )
        23           Si  tau(  23) = (   0.0837728   0.2508270   0.9169200  )
        24           Si  tau(  24) = (   0.0004265   0.3336010   0.0001490  )
        25           Si  tau(  25) = (   0.0828055   0.4166520   0.0841287  )
        26           Si  tau(  26) = (   0.1652480   0.5004770   0.0015038  )
        27           Si  tau(  27) = (   0.2498080   0.5831560   0.0840324  )
        28           Si  tau(  28) = (   0.1666320   0.3335450   0.1666050  )
        29           Si  tau(  29) = (   0.2497090   0.4168250   0.2498890  )
        30           Si  tau(  30) = (   0.0004025   0.5003540   0.1671770  )
        31           Si  tau(  31) = (   0.0836883   0.5830200   0.2507770  )
        32           Si  tau(  32) = (   0.0000067   0.3327680   0.3327350  )
        33           Si  tau(  33) = (   0.0829137   0.4162770   0.4159010  )
        34           Si  tau(  34) = (   0.1668660   0.4998580   0.3337230  )
        35           Si  tau(  35) = (   0.2497010   0.5842390   0.4164850  )
        36           Si  tau(  36) = (   0.1659150   0.3335340   0.4996700  )
        37           Si  tau(  37) = (   0.2484800   0.4182680   0.5819290  )
        38           Si  tau(  38) = (   0.9999800   0.4992370   0.4996150  )
        39           Si  tau(  39) = (   0.0832791   0.5828170   0.5821980  )
        40           Si  tau(  40) = (   0.9998050   0.3329030   0.6670550  )
        41           Si  tau(  41) = (   0.0829161   0.4166690   0.7499520  )
        42           Si  tau(  42) = (   0.1658000   0.5004330   0.6667610  )
        43           Si  tau(  43) = (   0.2474960   0.5859600   0.7494670  )
        44           Si  tau(  44) = (   0.1674120   0.3339940   0.8327910  )
        45           Si  tau(  45) = (   0.2488590   0.4187560   0.9173400  )
        46           Si  tau(  46) = (   0.9999100   0.5001770   0.8332090  )
        47           Si  tau(  47) = (   0.0829237   0.5832960   0.9169160  )
        48           Si  tau(  48) = (   0.9995630   0.6667330   0.9997590  )
        49           Si  tau(  49) = (   0.0835165   0.7485320   0.0838399  )
        50           Si  tau(  50) = (   0.1685340   0.8326400   0.0045141  )
        51           Si  tau(  51) = (   0.2515690   0.9180570   0.0848477  )
        52           Si  tau(  52) = (   0.1668100   0.6662690   0.1674310  )
        53           Si  tau(  53) = (   0.2497740   0.7504810   0.2500100  )
        54           Si  tau(  54) = (   0.0039411   0.8322500   0.1691520  )
        55           Si  tau(  55) = (   0.0845870   0.9182610   0.2514670  )
        56           Si  tau(  56) = (   0.0005578   0.6656430   0.3345200  )
        57           Si  tau(  57) = (   0.0833463   0.7500960   0.4168570  )
        58           Si  tau(  58) = (   0.1668400   0.8334130   0.3338950  )
        59           Si  tau(  59) = (   0.2500650   0.9169160   0.4167740  )
        60           Si  tau(  60) = (   0.1667060   0.6672040   0.5002150  )
        61           Si  tau(  61) = (   0.2488850   0.7515560   0.5834930  )
        62           Si  tau(  62) = (   0.0001825   0.8339380   0.4995730  )
        63           Si  tau(  63) = (   0.0835222   0.9168480   0.5828490  )
        64           Si  tau(  64) = (   0.9996230   0.6656050   0.6648420  )
        65           Si  tau(  65) = (   0.0809023   0.7499470   0.7488490  )
        66           Si  tau(  66) = (   0.1659080   0.8347640   0.6679230  )
        67           Si  tau(  67) = (   0.2502190   0.9198220   0.7495870  )
        68           Si  tau(  68) = (   0.1649870   0.6687200   0.8344450  )
        69           Si  tau(  69) = (   0.2504680   0.7500760   0.9187830  )
        70           Si  tau(  70) = (   0.9953910   0.8320680   0.8307720  )
        71           Si  tau(  71) = (   0.0999739   0.9003470   0.8995830  )
        72           Si  tau(  72) = (   0.3333520   0.0008490   0.9999860  )
        73           Si  tau(  73) = (   0.4163040   0.0831200   0.0842598  )
        74           Si  tau(  74) = (   0.5002770   0.1655300   0.0016640  )
        75           Si  tau(  75) = (   0.5829170   0.2499750   0.0843183  )
        76           Si  tau(  76) = (   0.4997350   0.0000363   0.1670670  )
        77           Si  tau(  77) = (   0.5831490   0.0830193   0.2498550  )
        78           Si  tau(  78) = (   0.3332700   0.1674620   0.1665190  )
        79           Si  tau(  79) = (   0.4167200   0.2503690   0.2497560  )
        80           Si  tau(  80) = (   0.3337710   0.9997940   0.3336360  )
        81           Si  tau(  81) = (   0.4165880   0.0832969   0.4162610  )
        82           Si  tau(  82) = (   0.4994510   0.1658270   0.3320320  )
        83           Si  tau(  83) = (   0.5814680   0.2496880   0.4156210  )
        84           Si  tau(  84) = (   0.4998500   0.0005421   0.4996280  )
        85           Si  tau(  85) = (   0.5832390   0.0835683   0.5825700  )
        86           Si  tau(  86) = (   0.3323580   0.1660710   0.4990740  )
        87           Si  tau(  87) = (   0.4157000   0.2482500   0.5824050  )
        88           Si  tau(  88) = (   0.3343870   0.0006161   0.6651220  )
        89           Si  tau(  89) = (   0.4168150   0.0833713   0.7495270  )
        90           Si  tau(  90) = (   0.5000180   0.1664220   0.6662370  )
        91           Si  tau(  91) = (   0.5840060   0.2477970   0.7506250  )
        92           Si  tau(  92) = (   0.4999120   0.0003923   0.8332220  )
        93           Si  tau(  93) = (   0.5830960   0.0830831   0.9171790  )
        94           Si  tau(  94) = (   0.3346020   0.1685590   0.8321660  )
        95           Si  tau(  95) = (   0.4187870   0.2495780   0.9175390  )
        96           Si  tau(  96) = (   0.3341360   0.3344900   0.9985930  )
        97           Si  tau(  97) = (   0.4163740   0.4169070   0.0836562  )
        98           Si  tau(  98) = (   0.4998180   0.5000850   0.0008277  )
        99           Si  tau(  99) = (   0.5829640   0.5831940   0.0840319  )
       100           Si  tau( 100) = (   0.4998930   0.3340010   0.1668270  )
       101           Si  tau( 101) = (   0.5836410   0.4170910   0.2497610  )
       102           Si  tau( 102) = (   0.3332840   0.5001150   0.1669430  )
       103           Si  tau( 103) = (   0.4165410   0.5839720   0.2497100  )
       104           Si  tau( 104) = (   0.3329840   0.3334610   0.3328010  )
       105           Si  tau( 105) = (   0.4152520   0.4183980   0.4152060  )
       106           Si  tau( 106) = (   0.5000270   0.5006270   0.3324440  )
       107           Si  tau( 107) = (   0.5823770   0.5856250   0.4147270  )
       108           Si  tau( 108) = (   0.4956790   0.3320420   0.4972710  )
       109           Si  tau( 109) = (   0.6007500   0.3997800   0.5657460  )
       110           Si  tau( 110) = (   0.3324100   0.5008270   0.4992130  )
       111           Si  tau( 111) = (   0.4127560   0.5881270   0.5801760  )
       112           Si  tau( 112) = (   0.3303360   0.3317710   0.6623630  )
       113           Si  tau( 113) = (   0.3989570   0.3997150   0.7672130  )
       114           Si  tau( 114) = (   0.6002220   0.6006250   0.7668690  )
       115           Si  tau( 115) = (   0.5040760   0.3314530   0.8356610  )
       116           Si  tau( 116) = (   0.5840300   0.4161680   0.9194600  )
       117           Si  tau( 117) = (   0.3301020   0.5047090   0.8348150  )
       118           Si  tau( 118) = (   0.4162680   0.5836530   0.9183090  )
       119           Si  tau( 119) = (   0.3338360   0.6663260   0.0014132  )
       120           Si  tau( 120) = (   0.4170250   0.7504470   0.0838828  )
       121           Si  tau( 121) = (   0.4996640   0.8349820   0.0013360  )
       122           Si  tau( 122) = (   0.5833730   0.9176250   0.0839308  )
       123           Si  tau( 123) = (   0.5003450   0.6673030   0.1669850  )
       124           Si  tau( 124) = (   0.5842180   0.7512970   0.2490970  )
       125           Si  tau( 125) = (   0.3339520   0.8333730   0.1672830  )
       126           Si  tau( 126) = (   0.4170520   0.9166460   0.2504460  )
       127           Si  tau( 127) = (   0.3331200   0.6670170   0.3330690  )
       128           Si  tau( 128) = (   0.4160200   0.7507110   0.4159940  )
       129           Si  tau( 129) = (   0.5003920   0.8334510   0.3331840  )
       130           Si  tau( 130) = (   0.5827710   0.9170320   0.4167940  )
       131           Si  tau( 131) = (   0.4996520   0.6683040   0.4985840  )
       132           Si  tau( 132) = (   0.5821810   0.7517980   0.5815920  )
       133           Si  tau( 133) = (   0.3331260   0.8335970   0.4999320  )
       134           Si  tau( 134) = (   0.4169160   0.9169750   0.5823510  )
       135           Si  tau( 135) = (   0.3313380   0.6688000   0.6668930  )
       136           Si  tau( 136) = (   0.4140590   0.7526650   0.7493990  )
       137           Si  tau( 137) = (   0.4994210   0.8340920   0.6663110  )
       138           Si  tau( 138) = (   0.5827310   0.9170770   0.7495560  )
       139           Si  tau( 139) = (   0.4950870   0.6695040   0.8343830  )
       140           Si  tau( 140) = (   0.5807360   0.7506100   0.9172100  )
       141           Si  tau( 141) = (   0.3316710   0.8354520   0.8345260  )
       142           Si  tau( 142) = (   0.4168330   0.9175560   0.9170730  )
       143           Si  tau( 143) = (   0.6665340   0.0000858   0.9999360  )
       144           Si  tau( 144) = (   0.7484720   0.0851967   0.0823961  )
       145           Si  tau( 145) = (   0.8319240   0.1685910   0.0003376  )
       146           Si  tau( 146) = (   0.9170490   0.2501710   0.0826283  )
       147           Si  tau( 147) = (   0.8314340   0.0050752   0.1680470  )
       148           Si  tau( 148) = (   0.9176520   0.0850268   0.2506680  )
       149           Si  tau( 149) = (   0.6662380   0.1671960   0.1675320  )
       150           Si  tau( 150) = (   0.7497520   0.2506120   0.2505870  )
       151           Si  tau( 151) = (   0.6654750   0.0008464   0.3346380  )
       152           Si  tau( 152) = (   0.7492960   0.0844225   0.4170970  )
       153           Si  tau( 153) = (   0.8330590   0.1673700   0.3337210  )
       154           Si  tau( 154) = (   0.9158950   0.2510810   0.4169730  )
       155           Si  tau( 155) = (   0.8330170   0.0007062   0.4996020  )
       156           Si  tau( 156) = (   0.9173410   0.0831262   0.5825300  )
       157           Si  tau( 157) = (   0.6662140   0.1684200   0.5004250  )
       158           Si  tau( 158) = (   0.7512520   0.2494810   0.5849020  )
       159           Si  tau( 159) = (   0.6658440   0.9999690   0.6657280  )
       160           Si  tau( 160) = (   0.7490330   0.0836636   0.7483610  )
       161           Si  tau( 161) = (   0.8350940   0.1655030   0.6668580  )
       162           Si  tau( 162) = (   0.9174090   0.2490070   0.7509060  )
       163           Si  tau( 163) = (   0.8302190   0.9994840   0.8305540  )
       164           Si  tau( 164) = (   0.9095110   0.0862133   0.9126210  )
       165           Si  tau( 165) = (   0.6672110   0.1656190   0.8340550  )
       166           Si  tau( 166) = (   0.7494310   0.2508340   0.9164120  )
       167           Si  tau( 167) = (   0.6671230   0.3328950   0.0016609  )
       168           Si  tau( 168) = (   0.7507150   0.4166820   0.0840744  )
       169           Si  tau( 169) = (   0.8348770   0.4998090   0.0015937  )
       170           Si  tau( 170) = (   0.9173150   0.5837800   0.0842522  )
       171           Si  tau( 171) = (   0.8337350   0.3329280   0.1668440  )
       172           Si  tau( 172) = (   0.9174160   0.4163380   0.2493860  )
       173           Si  tau( 173) = (   0.6671390   0.5003170   0.1667230  )
       174           Si  tau( 174) = (   0.7509730   0.5843030   0.2488960  )
       175           Si  tau( 175) = (   0.6661630   0.3341860   0.3342290  )
       176           Si  tau( 176) = (   0.7506630   0.4190800   0.4153010  )
       177           Si  tau( 177) = (   0.8347170   0.5005740   0.3313820  )
       178           Si  tau( 178) = (   0.9169000   0.5826900   0.4166340  )
       179           Si  tau( 179) = (   0.8320630   0.3344840   0.5001690  )
       180           Si  tau( 180) = (   0.9170380   0.4162220   0.5832360  )
       181           Si  tau( 181) = (   0.6682990   0.5048130   0.4969020  )
       182           Si  tau( 182) = (   0.7520520   0.5844860   0.5821620  )
       183           Si  tau( 183) = (   0.6692650   0.3311050   0.6705570  )
       184           Si  tau( 184) = (   0.7527920   0.4160740   0.7505730  )
       185           Si  tau( 185) = (   0.8339710   0.5000730   0.6659990  )
       186           Si  tau( 186) = (   0.9168580   0.5832160   0.7493970  )
       187           Si  tau( 187) = (   0.8348410   0.3328150   0.8341870  )
       188           Si  tau( 188) = (   0.9173850   0.4169200   0.9172550  )
       189           Si  tau( 189) = (   0.6689270   0.4958910   0.8355800  )
       190           Si  tau( 190) = (   0.7504620   0.5812470   0.9176320  )
       191           Si  tau( 191) = (   0.6647420   0.6652010   0.9985350  )
       192           Si  tau( 192) = (   0.7487340   0.7496890   0.0806701  )
       193           Si  tau( 193) = (   0.8308070   0.8322210   0.9950630  )
       194           Si  tau( 194) = (   0.8992640   0.9000230   0.1002200  )
       195           Si  tau( 195) = (   0.8338310   0.6686060   0.1656740  )
       196           Si  tau( 196) = (   0.9184830   0.7496920   0.2509380  )
       197           Si  tau( 197) = (   0.6679560   0.8346540   0.1658200  )
       198           Si  tau( 198) = (   0.7494070   0.9194290   0.2504980  )
       199           Si  tau( 199) = (   0.6674300   0.6677070   0.3319990  )
       200           Si  tau( 200) = (   0.7504150   0.7510810   0.4155080  )
       201           Si  tau( 201) = (   0.8339700   0.8347030   0.3320580  )
       202           Si  tau( 202) = (   0.9164900   0.9172610   0.4167120  )
       203           Si  tau( 203) = (   0.8340890   0.6677430   0.4985580  )
       204           Si  tau( 204) = (   0.9171320   0.7504310   0.5824350  )
       205           Si  tau( 205) = (   0.6669670   0.8341410   0.4991590  )
       206           Si  tau( 206) = (   0.7499170   0.9172380   0.5826880  )
       207           Si  tau( 207) = (   0.6680780   0.6693840   0.6620320  )
       208           Si  tau( 208) = (   0.7504380   0.7510750   0.7477530  )
       209           Si  tau( 209) = (   0.8342080   0.8344810   0.6652770  )
       210           Si  tau( 210) = (   0.9156770   0.9184920   0.7483870  )
       211           Si  tau( 211) = (   0.8313670   0.6653280   0.8319110  )
       212           Si  tau( 212) = (   0.9151920   0.7478550   0.9152880  )
       213           Si  tau( 213) = (   0.6648700   0.8318340   0.8320470  )
       214           Si  tau( 214) = (   0.7475160   0.9170210   0.9144020  )
       215           H   tau( 215) = (   0.1540730   0.8462450   0.8453890  )
       216           H   tau( 216) = (   0.0458306   0.0271487   0.0316825  )
       217           H   tau( 217) = (   0.3455670   0.3455190   0.8214880  )
       218           H   tau( 218) = (   0.9543050   0.0264551   0.9680920  )
       219           H   tau( 219) = (   0.8449890   0.8457580   0.1540420  )
       220           H   tau( 220) = (   0.6549090   0.3456330   0.5121500  )
       221           H   tau( 221) = (   0.6544600   0.6541020   0.8208670  )
       222           H   tau( 222) = (   0.4677650   0.5348000   0.6352760  )

   Crystallographic axes

     site n.     atom                  positions (cryst. coord.)
         1           Si  tau(   1) = (  0.0907263  0.0869368  0.0871850  )
         2           Si  tau(   2) = (  0.1686830  0.1692860  0.9994910  )
         3           Si  tau(   3) = (  0.2511620  0.2518050  0.0831679  )
         4           Si  tau(   4) = (  0.1696100  0.0002299  0.1694820  )
         5           Si  tau(   5) = (  0.2513800  0.0846012  0.2513160  )
         6           Si  tau(   6) = (  0.0000922  0.1665280  0.1652840  )
         7           Si  tau(   7) = (  0.0833447  0.2495850  0.2491140  )
         8           Si  tau(   8) = (  0.9998210  0.0007000  0.3336920  )
         9           Si  tau(   9) = (  0.0831843  0.0840503  0.4165810  )
        10           Si  tau(  10) = (  0.1665010  0.1671640  0.3332990  )
        11           Si  tau(  11) = (  0.2496800  0.2506150  0.4165300  )
        12           Si  tau(  12) = (  0.1663310  0.0001967  0.4994920  )
        13           Si  tau(  13) = (  0.2494550  0.0830707  0.5828710  )
        14           Si  tau(  14) = (  0.9996950  0.1674670  0.4995450  )
        15           Si  tau(  15) = (  0.0830077  0.2501640  0.5831740  )
        16           Si  tau(  16) = (  0.0002527  0.0000836  0.6657540  )
        17           Si  tau(  17) = (  0.0814269  0.0840368  0.7496180  )
        18           Si  tau(  18) = (  0.1651510  0.1655410  0.6660750  )
        19           Si  tau(  19) = (  0.2487210  0.2493620  0.7481260  )
        20           Si  tau(  20) = (  0.1684300  0.0053483  0.8322350  )
        21           Si  tau(  21) = (  0.2520260  0.0860576  0.9170440  )
        22           Si  tau(  22) = (  0.0003212  0.1663680  0.8351360  )
        23           Si  tau(  23) = (  0.0837728  0.2508270  0.9169200  )
        24           Si  tau(  24) = (  0.0004265  0.3336010  0.0001490  )
        25           Si  tau(  25) = (  0.0828055  0.4166520  0.0841287  )
        26           Si  tau(  26) = (  0.1652480  0.5004770  0.0015038  )
        27           Si  tau(  27) = (  0.2498080  0.5831560  0.0840324  )
        28           Si  tau(  28) = (  0.1666320  0.3335450  0.1666050  )
        29           Si  tau(  29) = (  0.2497090  0.4168250  0.2498890  )
        30           Si  tau(  30) = (  0.0004025  0.5003540  0.1671770  )
        31           Si  tau(  31) = (  0.0836883  0.5830200  0.2507770  )
        32           Si  tau(  32) = (  0.0000067  0.3327680  0.3327350  )
        33           Si  tau(  33) = (  0.0829137  0.4162770  0.4159010  )
        34           Si  tau(  34) = (  0.1668660  0.4998580  0.3337230  )
        35           Si  tau(  35) = (  0.2497010  0.5842390  0.4164850  )
        36           Si  tau(  36) = (  0.1659150  0.3335340  0.4996700  )
        37           Si  tau(  37) = (  0.2484800  0.4182680  0.5819290  )
        38           Si  tau(  38) = (  0.9999800  0.4992370  0.4996150  )
        39           Si  tau(  39) = (  0.0832791  0.5828170  0.5821980  )
        40           Si  tau(  40) = (  0.9998050  0.3329030  0.6670550  )
        41           Si  tau(  41) = (  0.0829161  0.4166690  0.7499520  )
        42           Si  tau(  42) = (  0.1658000  0.5004330  0.6667610  )
        43           Si  tau(  43) = (  0.2474960  0.5859600  0.7494670  )
        44           Si  tau(  44) = (  0.1674120  0.3339940  0.8327910  )
        45           Si  tau(  45) = (  0.2488590  0.4187560  0.9173400  )
        46           Si  tau(  46) = (  0.9999100  0.5001770  0.8332090  )
        47           Si  tau(  47) = (  0.0829237  0.5832960  0.9169160  )
        48           Si  tau(  48) = (  0.9995630  0.6667330  0.9997590  )
        49           Si  tau(  49) = (  0.0835165  0.7485320  0.0838399  )
        50           Si  tau(  50) = (  0.1685340  0.8326400  0.0045141  )
        51           Si  tau(  51) = (  0.2515690  0.9180570  0.0848477  )
        52           Si  tau(  52) = (  0.1668100  0.6662690  0.1674310  )
        53           Si  tau(  53) = (  0.2497740  0.7504810  0.2500100  )
        54           Si  tau(  54) = (  0.0039411  0.8322500  0.1691520  )
        55           Si  tau(  55) = (  0.0845870  0.9182610  0.2514670  )
        56           Si  tau(  56) = (  0.0005578  0.6656430  0.3345200  )
        57           Si  tau(  57) = (  0.0833463  0.7500960  0.4168570  )
        58           Si  tau(  58) = (  0.1668400  0.8334130  0.3338950  )
        59           Si  tau(  59) = (  0.2500650  0.9169160  0.4167740  )
        60           Si  tau(  60) = (  0.1667060  0.6672040  0.5002150  )
        61           Si  tau(  61) = (  0.2488850  0.7515560  0.5834930  )
        62           Si  tau(  62) = (  0.0001825  0.8339380  0.4995730  )
        63           Si  tau(  63) = (  0.0835222  0.9168480  0.5828490  )
        64           Si  tau(  64) = (  0.9996230  0.6656050  0.6648420  )
        65           Si  tau(  65) = (  0.0809023  0.7499470  0.7488490  )
        66           Si  tau(  66) = (  0.1659080  0.8347640  0.6679230  )
        67           Si  tau(  67) = (  0.2502190  0.9198220  0.7495870  )
        68           Si  tau(  68) = (  0.1649870  0.6687200  0.8344450  )
        69           Si  tau(  69) = (  0.2504680  0.7500760  0.9187830  )
        70           Si  tau(  70) = (  0.9953910  0.8320680  0.8307720  )
        71           Si  tau(  71) = (  0.0999739  0.9003470  0.8995830  )
        72           Si  tau(  72) = (  0.3333520  0.0008490  0.9999860  )
        73           Si  tau(  73) = (  0.4163040  0.0831200  0.0842598  )
        74           Si  tau(  74) = (  0.5002770  0.1655300  0.0016640  )
        75           Si  tau(  75) = (  0.5829170  0.2499750  0.0843183  )
        76           Si  tau(  76) = (  0.4997350  0.0000363  0.1670670  )
        77           Si  tau(  77) = (  0.5831490  0.0830193  0.2498550  )
        78           Si  tau(  78) = (  0.3332700  0.1674620  0.1665190  )
        79           Si  tau(  79) = (  0.4167200  0.2503690  0.2497560  )
        80           Si  tau(  80) = (  0.3337710  0.9997940  0.3336360  )
        81           Si  tau(  81) = (  0.4165880  0.0832969  0.4162610  )
        82           Si  tau(  82) = (  0.4994510  0.1658270  0.3320320  )
        83           Si  tau(  83) = (  0.5814680  0.2496880  0.4156210  )
        84           Si  tau(  84) = (  0.4998500  0.0005421  0.4996280  )
        85           Si  tau(  85) = (  0.5832390  0.0835683  0.5825700  )
        86           Si  tau(  86) = (  0.3323580  0.1660710  0.4990740  )
        87           Si  tau(  87) = (  0.4157000  0.2482500  0.5824050  )
        88           Si  tau(  88) = (  0.3343870  0.0006161  0.6651220  )
        89           Si  tau(  89) = (  0.4168150  0.0833713  0.7495270  )
        90           Si  tau(  90) = (  0.5000180  0.1664220  0.6662370  )
        91           Si  tau(  91) = (  0.5840060  0.2477970  0.7506250  )
        92           Si  tau(  92) = (  0.4999120  0.0003923  0.8332220  )
        93           Si  tau(  93) = (  0.5830960  0.0830831  0.9171790  )
        94           Si  tau(  94) = (  0.3346020  0.1685590  0.8321660  )
        95           Si  tau(  95) = (  0.4187870  0.2495780  0.9175390  )
        96           Si  tau(  96) = (  0.3341360  0.3344900  0.9985930  )
        97           Si  tau(  97) = (  0.4163740  0.4169070  0.0836562  )
        98           Si  tau(  98) = (  0.4998180  0.5000850  0.0008277  )
        99           Si  tau(  99) = (  0.5829640  0.5831940  0.0840319  )
       100           Si  tau( 100) = (  0.4998930  0.3340010  0.1668270  )
       101           Si  tau( 101) = (  0.5836410  0.4170910  0.2497610  )
       102           Si  tau( 102) = (  0.3332840  0.5001150  0.1669430  )
       103           Si  tau( 103) = (  0.4165410  0.5839720  0.2497100  )
       104           Si  tau( 104) = (  0.3329840  0.3334610  0.3328010  )
       105           Si  tau( 105) = (  0.4152520  0.4183980  0.4152060  )
       106           Si  tau( 106) = (  0.5000270  0.5006270  0.3324440  )
       107           Si  tau( 107) = (  0.5823770  0.5856250  0.4147270  )
       108           Si  tau( 108) = (  0.4956790  0.3320420  0.4972710  )
       109           Si  tau( 109) = (  0.6007500  0.3997800  0.5657460  )
       110           Si  tau( 110) = (  0.3324100  0.5008270  0.4992130  )
       111           Si  tau( 111) = (  0.4127560  0.5881270  0.5801760  )
       112           Si  tau( 112) = (  0.3303360  0.3317710  0.6623630  )
       113           Si  tau( 113) = (  0.3989570  0.3997150  0.7672130  )
       114           Si  tau( 114) = (  0.6002220  0.6006250  0.7668690  )
       115           Si  tau( 115) = (  0.5040760  0.3314530  0.8356610  )
       116           Si  tau( 116) = (  0.5840300  0.4161680  0.9194600  )
       117           Si  tau( 117) = (  0.3301020  0.5047090  0.8348150  )
       118           Si  tau( 118) = (  0.4162680  0.5836530  0.9183090  )
       119           Si  tau( 119) = (  0.3338360  0.6663260  0.0014132  )
       120           Si  tau( 120) = (  0.4170250  0.7504470  0.0838828  )
       121           Si  tau( 121) = (  0.4996640  0.8349820  0.0013360  )
       122           Si  tau( 122) = (  0.5833730  0.9176250  0.0839308  )
       123           Si  tau( 123) = (  0.5003450  0.6673030  0.1669850  )
       124           Si  tau( 124) = (  0.5842180  0.7512970  0.2490970  )
       125           Si  tau( 125) = (  0.3339520  0.8333730  0.1672830  )
       126           Si  tau( 126) = (  0.4170520  0.9166460  0.2504460  )
       127           Si  tau( 127) = (  0.3331200  0.6670170  0.3330690  )
       128           Si  tau( 128) = (  0.4160200  0.7507110  0.4159940  )
       129           Si  tau( 129) = (  0.5003920  0.8334510  0.3331840  )
       130           Si  tau( 130) = (  0.5827710  0.9170320  0.4167940  )
       131           Si  tau( 131) = (  0.4996520  0.6683040  0.4985840  )
       132           Si  tau( 132) = (  0.5821810  0.7517980  0.5815920  )
       133           Si  tau( 133) = (  0.3331260  0.8335970  0.4999320  )
       134           Si  tau( 134) = (  0.4169160  0.9169750  0.5823510  )
       135           Si  tau( 135) = (  0.3313380  0.6688000  0.6668930  )
       136           Si  tau( 136) = (  0.4140590  0.7526650  0.7493990  )
       137           Si  tau( 137) = (  0.4994210  0.8340920  0.6663110  )
       138           Si  tau( 138) = (  0.5827310  0.9170770  0.7495560  )
       139           Si  tau( 139) = (  0.4950870  0.6695040  0.8343830  )
       140           Si  tau( 140) = (  0.5807360  0.7506100  0.9172100  )
       141           Si  tau( 141) = (  0.3316710  0.8354520  0.8345260  )
       142           Si  tau( 142) = (  0.4168330  0.9175560  0.9170730  )
       143           Si  tau( 143) = (  0.6665340  0.0000858  0.9999360  )
       144           Si  tau( 144) = (  0.7484720  0.0851967  0.0823961  )
       145           Si  tau( 145) = (  0.8319240  0.1685910  0.0003376  )
       146           Si  tau( 146) = (  0.9170490  0.2501710  0.0826283  )
       147           Si  tau( 147) = (  0.8314340  0.0050752  0.1680470  )
       148           Si  tau( 148) = (  0.9176520  0.0850268  0.2506680  )
       149           Si  tau( 149) = (  0.6662380  0.1671960  0.1675320  )
       150           Si  tau( 150) = (  0.7497520  0.2506120  0.2505870  )
       151           Si  tau( 151) = (  0.6654750  0.0008464  0.3346380  )
       152           Si  tau( 152) = (  0.7492960  0.0844225  0.4170970  )
       153           Si  tau( 153) = (  0.8330590  0.1673700  0.3337210  )
       154           Si  tau( 154) = (  0.9158950  0.2510810  0.4169730  )
       155           Si  tau( 155) = (  0.8330170  0.0007062  0.4996020  )
       156           Si  tau( 156) = (  0.9173410  0.0831262  0.5825300  )
       157           Si  tau( 157) = (  0.6662140  0.1684200  0.5004250  )
       158           Si  tau( 158) = (  0.7512520  0.2494810  0.5849020  )
       159           Si  tau( 159) = (  0.6658440  0.9999690  0.6657280  )
       160           Si  tau( 160) = (  0.7490330  0.0836636  0.7483610  )
       161           Si  tau( 161) = (  0.8350940  0.1655030  0.6668580  )
       162           Si  tau( 162) = (  0.9174090  0.2490070  0.7509060  )
       163           Si  tau( 163) = (  0.8302190  0.9994840  0.8305540  )
       164           Si  tau( 164) = (  0.9095110  0.0862133  0.9126210  )
       165           Si  tau( 165) = (  0.6672110  0.1656190  0.8340550  )
       166           Si  tau( 166) = (  0.7494310  0.2508340  0.9164120  )
       167           Si  tau( 167) = (  0.6671230  0.3328950  0.0016609  )
       168           Si  tau( 168) = (  0.7507150  0.4166820  0.0840744  )
       169           Si  tau( 169) = (  0.8348770  0.4998090  0.0015937  )
       170           Si  tau( 170) = (  0.9173150  0.5837800  0.0842522  )
       171           Si  tau( 171) = (  0.8337350  0.3329280  0.1668440  )
       172           Si  tau( 172) = (  0.9174160  0.4163380  0.2493860  )
       173           Si  tau( 173) = (  0.6671390  0.5003170  0.1667230  )
       174           Si  tau( 174) = (  0.7509730  0.5843030  0.2488960  )
       175           Si  tau( 175) = (  0.6661630  0.3341860  0.3342290  )
       176           Si  tau( 176) = (  0.7506630  0.4190800  0.4153010  )
       177           Si  tau( 177) = (  0.8347170  0.5005740  0.3313820  )
       178           Si  tau( 178) = (  0.9169000  0.5826900  0.4166340  )
       179           Si  tau( 179) = (  0.8320630  0.3344840  0.5001690  )
       180           Si  tau( 180) = (  0.9170380  0.4162220  0.5832360  )
       181           Si  tau( 181) = (  0.6682990  0.5048130  0.4969020  )
       182           Si  tau( 182) = (  0.7520520  0.5844860  0.5821620  )
       183           Si  tau( 183) = (  0.6692650  0.3311050  0.6705570  )
       184           Si  tau( 184) = (  0.7527920  0.4160740  0.7505730  )
       185           Si  tau( 185) = (  0.8339710  0.5000730  0.6659990  )
       186           Si  tau( 186) = (  0.9168580  0.5832160  0.7493970  )
       187           Si  tau( 187) = (  0.8348410  0.3328150  0.8341870  )
       188           Si  tau( 188) = (  0.9173850  0.4169200  0.9172550  )
       189           Si  tau( 189) = (  0.6689270  0.4958910  0.8355800  )
       190           Si  tau( 190) = (  0.7504620  0.5812470  0.9176320  )
       191           Si  tau( 191) = (  0.6647420  0.6652010  0.9985350  )
       192           Si  tau( 192) = (  0.7487340  0.7496890  0.0806701  )
       193           Si  tau( 193) = (  0.8308070  0.8322210  0.9950630  )
       194           Si  tau( 194) = (  0.8992640  0.9000230  0.1002200  )
       195           Si  tau( 195) = (  0.8338310  0.6686060  0.1656740  )
       196           Si  tau( 196) = (  0.9184830  0.7496920  0.2509380  )
       197           Si  tau( 197) = (  0.6679560  0.8346540  0.1658200  )
       198           Si  tau( 198) = (  0.7494070  0.9194290  0.2504980  )
       199           Si  tau( 199) = (  0.6674300  0.6677070  0.3319990  )
       200           Si  tau( 200) = (  0.7504150  0.7510810  0.4155080  )
       201           Si  tau( 201) = (  0.8339700  0.8347030  0.3320580  )
       202           Si  tau( 202) = (  0.9164900  0.9172610  0.4167120  )
       203           Si  tau( 203) = (  0.8340890  0.6677430  0.4985580  )
       204           Si  tau( 204) = (  0.9171320  0.7504310  0.5824350  )
       205           Si  tau( 205) = (  0.6669670  0.8341410  0.4991590  )
       206           Si  tau( 206) = (  0.7499170  0.9172380  0.5826880  )
       207           Si  tau( 207) = (  0.6680780  0.6693840  0.6620320  )
       208           Si  tau( 208) = (  0.7504380  0.7510750  0.7477530  )
       209           Si  tau( 209) = (  0.8342080  0.8344810  0.6652770  )
       210           Si  tau( 210) = (  0.9156770  0.9184920  0.7483870  )
       211           Si  tau( 211) = (  0.8313670  0.6653280  0.8319110  )
       212           Si  tau( 212) = (  0.9151920  0.7478550  0.9152880  )
       213           Si  tau( 213) = (  0.6648700  0.8318340  0.8320470  )
       214           Si  tau( 214) = (  0.7475160  0.9170210  0.9144020  )
       215           H   tau( 215) = (  0.1540730  0.8462450  0.8453890  )
       216           H   tau( 216) = (  0.0458306  0.0271487  0.0316825  )
       217           H   tau( 217) = (  0.3455670  0.3455190  0.8214880  )
       218           H   tau( 218) = (  0.9543050  0.0264551  0.9680920  )
       219           H   tau( 219) = (  0.8449890  0.8457580  0.1540420  )
       220           H   tau( 220) = (  0.6549090  0.3456330  0.5121500  )
       221           H   tau( 221) = (  0.6544600  0.6541020  0.8208670  )
       222           H   tau( 222) = (  0.4677650  0.5348000  0.6352760  )

     number of k points=     8  Marzari-Vanderbilt smearing, width (Ry)=  0.0500
                       cart. coord. in units 2pi/alat
        k(    1) = (   0.0000000   0.0000000   0.0000000), wk =   0.2500000
        k(    2) = (   0.0000000   0.0000000  -0.5000000), wk =   0.2500000
        k(    3) = (   0.0000000  -0.5000000  -0.5000000), wk =   0.2500000
        k(    4) = (  -0.5000000  -0.5000000  -0.5000000), wk =   0.2500000
        k(    5) = (  -0.5000000   0.0000000   0.0000000), wk =   0.2500000
        k(    6) = (   0.0000000  -0.5000000   0.0000000), wk =   0.2500000
        k(    7) = (  -0.5000000   0.0000000   0.5000000), wk =   0.2500000
        k(    8) = (  -0.5000000   0.5000000   0.0000000), wk =   0.2500000

                       cryst. coord.
        k(    1) = (   0.0000000   0.0000000   0.0000000), wk =   0.2500000
        k(    2) = (   0.0000000   0.0000000  -0.5000000), wk =   0.2500000
        k(    3) = (   0.0000000  -0.5000000  -0.5000000), wk =   0.2500000
        k(    4) = (  -0.5000000  -0.5000000  -0.5000000), wk =   0.2500000
        k(    5) = (  -0.5000000   0.0000000   0.0000000), wk =   0.2500000
        k(    6) = (   0.0000000  -0.5000000   0.0000000), wk =   0.2500000
        k(    7) = (  -0.5000000   0.0000000   0.5000000), wk =   0.2500000
        k(    8) = (  -0.5000000   0.5000000   0.0000000), wk =   0.2500000

     Dense  grid:  1078507 G-vectors     FFT dimensions: ( 128, 128, 128)

     Dynamical RAM for                 wfc:     133.21 MB

     Dynamical RAM for     wfc (w. buffer):    1198.86 MB

     Dynamical RAM for           str. fact:       4.11 MB

     Dynamical RAM for           local pot:       0.00 MB

     Dynamical RAM for          nlocal pot:     275.16 MB

     Dynamical RAM for                qrad:       1.75 MB

     Dynamical RAM for          rho,v,vnew:      12.17 MB

     Dynamical RAM for               rhoin:       4.06 MB

     Dynamical RAM for            rho*nmix:      32.91 MB

     Dynamical RAM for           G-vectors:       8.74 MB

     Dynamical RAM for          h,s,v(r/c):     196.53 MB

     Dynamical RAM for          <psi|beta>:       8.46 MB

     Dynamical RAM for                 psi:     532.83 MB

     Dynamical RAM for                hpsi:     532.83 MB

     Dynamical RAM for      wfcinit/wfcrot:     461.46 MB

     Estimated static dynamical RAM per process >       1.52 GB

     Estimated max dynamical RAM per process >       2.76 GB

     Estimated total dynamical RAM >      22.07 GB

     Initial potential from superposition of free atoms

     starting charge  863.88024, renormalised to  864.00000
     Starting wfc are  864 randomized atomic wfcs

     total cpu time spent up to now is      252.8 secs

     Self-consistent Calculation

     iteration #  1     ecut=    42.00 Ry     beta= 0.30
     Davidson diagonalization with overlap
     ethr =  1.00E-02,  avg # of iterations =  3.1

     Threshold (ethr) on eigenvalues was too large:
     Diagonalizing with lowered threshold

     Davidson diagonalization with overlap
     ethr =  7.89E-04,  avg # of iterations =  3.4

     total cpu time spent up to now is     1400.3 secs

     total energy              =   -1694.64732674 Ry
     Harris-Foulkes estimate   =   -1695.72041860 Ry
     estimated scf accuracy    <       6.67882046 Ry

     iteration #  2     ecut=    42.00 Ry     beta= 0.30
     Davidson diagonalization with overlap
     ethr =  7.73E-04,  avg # of iterations =  3.0

     total cpu time spent up to now is     1829.2 secs

     total energy              =   -1694.16162602 Ry
     Harris-Foulkes estimate   =   -1694.76610679 Ry
     estimated scf accuracy    <       2.69370599 Ry

     iteration #  3     ecut=    42.00 Ry     beta= 0.30
     Davidson diagonalization with overlap
     ethr =  3.12E-04,  avg # of iterations =  9.1

     total cpu time spent up to now is     2426.0 secs

     total energy              =   -1694.22695254 Ry
     Harris-Foulkes estimate   =   -1694.33287176 Ry
     estimated scf accuracy    <       0.43396573 Ry

     iteration #  4     ecut=    42.00 Ry     beta= 0.30
     Davidson diagonalization with overlap
     ethr =  5.02E-05,  avg # of iterations =  9.8

     total cpu time spent up to now is     3165.8 secs

     total energy              =   -1694.27515844 Ry
     Harris-Foulkes estimate   =   -1694.33007206 Ry
     estimated scf accuracy    <       0.27954407 Ry

     iteration #  5     ecut=    42.00 Ry     beta= 0.30
     Davidson diagonalization with overlap
     ethr =  3.24E-05,  avg # of iterations =  8.8

     total cpu time spent up to now is     3756.8 secs

     total energy              =   -1694.30282002 Ry
     Harris-Foulkes estimate   =   -1694.30975093 Ry
     estimated scf accuracy    <       0.03960308 Ry

     iteration #  6     ecut=    42.00 Ry     beta= 0.30
     Davidson diagonalization with overlap
     ethr =  4.58E-06,  avg # of iterations =  9.2

     total cpu time spent up to now is     4356.5 secs

     total energy              =   -1694.30643660 Ry
     Harris-Foulkes estimate   =   -1694.30768018 Ry
     estimated scf accuracy    <       0.00929562 Ry

     iteration #  7     ecut=    42.00 Ry     beta= 0.30
     Davidson diagonalization with overlap
     ethr =  1.08E-06,  avg # of iterations =  4.0

     total cpu time spent up to now is     4776.1 secs

     total energy              =   -1694.30709245 Ry
     Harris-Foulkes estimate   =   -1694.30751514 Ry
     estimated scf accuracy    <       0.00250366 Ry

     iteration #  8     ecut=    42.00 Ry     beta= 0.30
     Davidson diagonalization with overlap
     ethr =  2.90E-07,  avg # of iterations =  3.4

     total cpu time spent up to now is     5222.8 secs

     total energy              =   -1694.30723663 Ry
     Harris-Foulkes estimate   =   -1694.30756013 Ry
     estimated scf accuracy    <       0.00167882 Ry

     iteration #  9     ecut=    42.00 Ry     beta= 0.30
     Davidson diagonalization with overlap
     ethr =  1.94E-07,  avg # of iterations =  2.4

     total cpu time spent up to now is     5628.5 secs

     total energy              =   -1694.30741944 Ry
     Harris-Foulkes estimate   =   -1694.30744186 Ry
     estimated scf accuracy    <       0.00015225 Ry

     iteration # 10     ecut=    42.00 Ry     beta= 0.30
     Davidson diagonalization with overlap
     ethr =  1.76E-08,  avg # of iterations =  2.9

     total cpu time spent up to now is     6091.9 secs

     total energy              =   -1694.30743900 Ry
     Harris-Foulkes estimate   =   -1694.30744411 Ry
     estimated scf accuracy    <       0.00003363 Ry

     iteration # 11     ecut=    42.00 Ry     beta= 0.30
     Davidson diagonalization with overlap
     ethr =  3.89E-09,  avg # of iterations =  3.2

     total cpu time spent up to now is     6537.6 secs

     total energy              =   -1694.30744315 Ry
     Harris-Foulkes estimate   =   -1694.30744546 Ry
     estimated scf accuracy    <       0.00001604 Ry

     iteration # 12     ecut=    42.00 Ry     beta= 0.30
     Davidson diagonalization with overlap
     ethr =  1.86E-09,  avg # of iterations =  3.1

     total cpu time spent up to now is     6982.0 secs

     total energy              =   -1694.30744596 Ry
     Harris-Foulkes estimate   =   -1694.30744576 Ry
     estimated scf accuracy    <       0.00000398 Ry

     iteration # 13     ecut=    42.00 Ry     beta= 0.30
     Davidson diagonalization with overlap
     ethr =  4.61E-10,  avg # of iterations =  2.8

     total cpu time spent up to now is     7409.6 secs

     total energy              =   -1694.30744679 Ry
     Harris-Foulkes estimate   =   -1694.30744651 Ry
     estimated scf accuracy    <       0.00000082 Ry

     iteration # 14     ecut=    42.00 Ry     beta= 0.30
     Davidson diagonalization with overlap
     ethr =  9.52E-11,  avg # of iterations =  2.4

     total cpu time spent up to now is     7853.0 secs

     total energy              =   -1694.30744719 Ry
     Harris-Foulkes estimate   =   -1694.30744689 Ry
     estimated scf accuracy    <       0.00000028 Ry

     iteration # 15     ecut=    42.00 Ry     beta= 0.30
     Davidson diagonalization with overlap
     ethr =  3.29E-11,  avg # of iterations =  2.6

     total cpu time spent up to now is     8330.2 secs

     total energy              =   -1694.30744730 Ry
     Harris-Foulkes estimate   =   -1694.30744723 Ry
     estimated scf accuracy    <       0.00000014 Ry

     iteration # 16     ecut=    42.00 Ry     beta= 0.30
     Davidson diagonalization with overlap
     ethr =  1.68E-11,  avg # of iterations =  3.0

     total cpu time spent up to now is     8767.8 secs

     total energy              =   -1694.30744734 Ry
     Harris-Foulkes estimate   =   -1694.30744732 Ry
     estimated scf accuracy    <       0.00000006 Ry

     iteration # 17     ecut=    42.00 Ry     beta= 0.30
     Davidson diagonalization with overlap
     ethr =  6.94E-12,  avg # of iterations =  3.4

     total cpu time spent up to now is     9219.0 secs

     total energy              =   -1694.30744736 Ry
     Harris-Foulkes estimate   =   -1694.30744736 Ry
     estimated scf accuracy    <       0.00000005 Ry

     iteration # 18     ecut=    42.00 Ry     beta= 0.30
     Davidson diagonalization with overlap
     ethr =  5.47E-12,  avg # of iterations =  2.9

     total cpu time spent up to now is     9603.9 secs

     End of self-consistent calculation

          k = 0.0000 0.0000 0.0000 (134683 PWs)   bands (ev):

    -5.8696  -5.4437  -5.4424  -5.4085  -5.3816  -5.3694  -5.3332  -5.0856
    -5.0562  -4.9712  -4.9356  -4.9318  -4.9146  -4.9105  -4.9063  -4.9003
    -4.8954  -4.8837  -4.7837  -4.5569  -4.5535  -4.5284  -4.4997  -4.4889
    -4.4807  -4.4523  -4.3951  -4.0523  -4.0245  -4.0202  -3.9607  -3.9470
    -3.8890  -3.7695  -3.7541  -3.6802  -3.6723  -3.6408  -3.5944  -3.5897
    -3.5879  -3.5852  -3.5814  -3.5777  -3.5748  -3.5702  -3.5700  -3.5690
    -3.5653  -3.5636  -3.5627  -3.5599  -3.5559  -3.5523  -3.5505  -3.4673
    -3.4469  -3.4212  -3.4158  -3.4045  -3.3980  -3.3920  -3.3889  -3.3820
    -3.3805  -3.3798  -3.3766  -3.3763  -3.3731  -3.3701  -3.3676  -3.3662
    -3.3625  -3.3614  -3.3588  -3.3524  -3.3424  -3.3392  -3.3338  -2.9718
    -2.9257  -2.6493  -2.6364  -2.6289  -2.6141  -2.6105  -2.6071  -2.6021
    -2.5965  -2.5879  -2.5843  -2.4293  -2.3982  -1.7548  -1.7441  -1.7363
    -1.7247  -1.7145  -1.6870  -1.6675  -1.6518  -1.6437  -1.6313  -1.6283
    -1.6241  -1.6220  -1.6201  -1.6153  -1.6140  -1.6110  -1.6095  -1.6086
    -1.6021  -1.6002  -1.5979  -1.5962  -1.5926  -1.5876  -1.5858  -1.5847
    -1.5790  -1.2847  -1.2498  -0.8291  -0.8111  -0.7833  -0.7629  -0.7282
    -0.6969  -0.6852  -0.6805  -0.6769  -0.6744  -0.6548  -0.6411  -0.6150
    -0.5965  -0.5904  -0.5628  -0.5452  -0.5254  -0.5181  -0.5152  -0.5116
    -0.5087  -0.5079  -0.5031  -0.4991  -0.4983  -0.4930  -0.4853  -0.4770
    -0.4537  -0.4508  -0.3819  -0.3396  -0.3304  -0.0952   0.1736   0.2871
     0.3236   0.3466   0.3778   0.3968   0.4099   0.4130   0.4189   0.4241
     0.4296   0.4320   0.4420   0.4458   0.4495   0.4496   0.4516   0.4542
     0.4588   0.4669   0.4693   0.4778   0.4815   0.6015   0.6776   0.7134
     0.7262   0.7418   0.7575   0.7730   0.7953   0.8821   1.0103   1.0248
     1.0445   1.0549   1.0779   1.4245   1.5543   1.6202   1.6331   1.6621
     1.6757   1.6839   1.6908   1.6951   1.6990   1.7058   1.7140   1.7328
     1.7788   1.9765   2.0014   2.0434   2.1204   2.1342   2.3144   2.3380
     2.3478   2.3511   2.3647   2.3662   2.3709   2.3747   2.3793   2.3974
     2.4001   2.4035   2.4179   2.4201   2.4313   2.4338   2.4397   2.4432
     2.4443   2.4490   2.4554   2.4640   2.4654   2.4752   2.4808   2.4829
     2.4897   2.4976   2.4997   2.5054   2.5067   2.5099   2.5148   2.5183
     2.5188   2.5227   2.5245   2.5296   2.5301   2.5322   2.5417   2.5458
     2.5511   2.5563   2.5660   2.5726   2.5784   2.5908   2.6059   2.6596
     2.6977   2.7766   2.7815   2.8212   2.9097   3.1509   3.1567   3.1767
     3.1992   3.2123   3.2146   3.2301   3.2408   3.2453   3.2505   3.2547
     3.2619   3.2691   3.2796   3.2873   3.2931   3.3078   3.3126   3.3176
     3.3207   3.3300   3.3420   3.3448   3.3529   3.3624   3.3749   3.3829
     3.3934   3.4642   3.5252   3.5669   3.5806   3.6111   3.6162   3.6254
     3.6309   3.6343   3.6392   3.6453   3.6531   3.6600   3.6702   3.6713
     3.6744   3.6778   3.6795   3.6842   3.6871   3.6916   3.6998   3.7034
     3.7152   3.7206   3.7282   3.7334   3.7357   3.7548   3.7573   3.7663
     3.7744   3.7777   3.7808   3.7843   3.7919   3.8045   3.8072   3.8099
     3.8149   3.8286   3.8547   3.8683   3.8702   3.9054   3.9285   3.9292
     3.9429   3.9497   3.9533   3.9641   3.9685   3.9778   3.9866   3.9900
     3.9922   4.0043   4.0109   4.0186   4.0324   4.0482   4.0609   4.0805
     4.1337   4.1503   4.1635   4.1862   4.1974   4.2487   4.2523   4.2783
     4.2929   4.2954   4.2992   4.3026   4.3079   4.3087   4.3104   4.3152
     4.3194   4.3257   4.3400   4.3406   4.3613   4.3701   4.3747   4.4046
     4.4185   4.4595   4.4740   4.5357   4.5762   4.8009   4.8379   4.8590
     4.8663   4.8692   4.8741   4.9060   4.9087   4.9141   4.9610   4.9870
     4.9930   5.0268   5.0335   5.0363   5.0416   5.0565   5.0580   5.0649
     5.0733   5.0892   5.0945   5.1171   5.1372   5.1448   5.1490   5.1670
     5.2014   5.3981   5.4368   5.4708   5.4739   5.4774   5.4815   5.5133
     5.5172   5.5191   5.5343   5.5488   5.5745   6.0291   6.0413   6.0471
     6.8108   6.8187   6.8247   6.8388   6.8485   6.8688   6.8756   6.8851
     6.9251   6.9356   6.9973   7.0500   7.5504   7.5766   7.6185   7.6209
     7.6341   7.6435   7.6546   7.6634   7.6823   7.7067   7.7074   7.7213
     7.7542   7.7711   7.7860   7.7900   7.7918   7.7968   7.8049   7.8068
     7.8337   7.8521   7.8539   7.9050   7.9072   7.9387   7.9595   7.9767
     7.9802   8.0191   8.0452   8.0524   8.0666   8.0770   8.0825   8.0877
     8.0899   8.0985   8.1021   8.1034   8.1108   8.1130   8.1406   8.1475
     8.1547   8.1677   8.1963   8.2135   8.2361   8.2395   8.2475   8.2674
     8.3127   8.3272   8.3568   8.3984   8.4462   8.5166   8.6174   8.6626
     8.6719   8.6818   8.6841   8.7137   8.7848   8.7966   8.8081   8.8091
     8.8128   8.8199   8.8261   8.8281   8.8340   8.8369

     occupation numbers 
     1.0000   1.0000   1.0000   1.0000   1.0000   1.0000   1.0000   1.0000
     1.0000   1.0000   1.0000   1.0000   1.0000   1.0000   1.0000   1.0000
     1.0000   1.0000   1.0000   1.0000   1.0000   1.0000   1.0000   1.0000
     1.0000   1.0000   1.0000   1.0000   1.0000   1.0000   1.0000   1.0000
     1.0000   1.0000   1.0000   1.0000   1.0000   1.0000   1.0000   1.0000
     1.0000   1.0000   1.0000   1.0000   1.0000   1.0000   1.0000   1.0000
     1.0000   1.0000   1.0000   1.0000   1.0000   1.0000   1.0000   1.0000
     1.0000   1.0000   1.0000   1.0000   1.0000   1.0000   1.0000   1.0000
     1.0000   1.0000   1.0000   1.0000   1.0000   1.0000   1.0000   1.0000
     1.0000   1.0000   1.0000   1.0000   1.0000   1.0000   1.0000   1.0000
     1.0000   1.0000   1.0000   1.0000   1.0000   1.0000   1.0000   1.0000
     1.0000   1.0000   1.0000   1.0000   1.0000   1.0000   1.0000   1.0000
     1.0000   1.0000   1.0000   1.0000   1.0000   1.0000   1.0000   1.0000
     1.0000   1.0000   1.0000   1.0000   1.0000   1.0000   1.0000   1.0000
     1.0000   1.0000   1.0000   1.0000   1.0000   1.0000   1.0000   1.0000
     1.0000   1.0000   1.0000   1.0000   1.0000   1.0000   1.0000   1.0000
     1.0000   1.0000   1.0000   1.0000   1.0000   1.0000   1.0000   1.0000
     1.0000   1.0000   1.0000   1.0000   1.0000   1.0000   1.0000   1.0000
     1.0000   1.0000   1.0000   1.0000   1.0000   1.0000   1.0000   1.0000
     1.0000   1.0000   1.0000   1.0000   1.0000   1.0000   1.0000   1.0000
     1.0000   1.0000   1.0000   1.0000   1.0000   1.0000   1.0000   1.0000
     1.0000   1.0000   1.0000   1.0000   1.0000   1.0000   1.0000   1.0000
     1.0000   1.0000   1.0000   1.0000   1.0000   1.0000   1.0000   1.0000
     1.0000   1.0000   1.0000   1.0000   1.0000   1.0000   1.0000   1.0000
     1.0000   1.0000   1.0000   1.0000   1.0000   1.0000   1.0000   1.0000
     1.0000   1.0000   1.0000   1.0000   1.0000   1.0000   1.0000   1.0000
     1.0000   1.0000   1.0000   1.0000   1.0000   1.0000   1.0000   1.0000
     1.0000   1.0000   1.0000   1.0000   1.0000   1.0000   1.0000   1.0000
     1.0000   1.0000   1.0000   1.0000   1.0000   1.0000   1.0000   1.0000
     1.0000   1.0000   1.0000   1.0000   1.0000   1.0000   1.0000   1.0000
     1.0000   1.0000   1.0000   1.0000   1.0000   1.0000   1.0000   1.0000
     1.0000   1.0000   1.0000   1.0000   1.0000   1.0000   1.0000   1.0000
     1.0000   1.0000   1.0000   1.0000   1.0000   1.0000   1.0000   1.0000
     1.0000   1.0000   1.0000   1.0000   1.0000   1.0000   1.0000   1.0000
     1.0000   1.0000   1.0000   1.0000   1.0000   1.0000   1.0000   1.0000
     1.0000   1.0000   1.0000   1.0000   1.0000   1.0000   1.0000   1.0000
     1.0000   1.0000   1.0000   1.0000   1.0000   1.0000   1.0000   1.0000
     1.0000   1.0001   1.0001   1.0002   1.0002   1.0003   1.0003   1.0003
     1.0003   1.0003   1.0003   1.0003   1.0004   1.0004   1.0004   1.0004
     1.0004   1.0004   1.0004   1.0005   1.0005   1.0005   1.0005   1.0005
     1.0006   1.0006   1.0006   1.0006   1.0007   1.0008   1.0008   1.0008
     1.0009   1.0009   1.0009   1.0009   1.0010   1.0011   1.0011   1.0011
     1.0011   1.0012   1.0015   1.0016   1.0016   1.0021   1.0024   1.0024
     1.0026   1.0027   1.0028   1.0029   1.0030   1.0032   1.0034   1.0034
     1.0035   1.0037   1.0039   1.0041   1.0044   1.0048   1.0052   1.0057
     1.0076   1.0083   1.0089   1.0100   1.0105   1.0134   1.0137   1.0154
     1.0164   1.0166   1.0169   1.0172   1.0176   1.0176   1.0177   1.0181
     1.0185   1.0190   1.0201   1.0202   1.0220   1.0228   1.0232   1.0261
     1.0275   1.0320   1.0337   1.0413   1.0466   1.0758   1.0791   1.0807
     1.0812   1.0813   1.0816   1.0829   1.0830   1.0831   1.0829   1.0817
     1.0813   1.0782   1.0774   1.0771   1.0763   1.0741   1.0739   1.0727
     1.0712   1.0680   1.0669   1.0614   1.0558   1.0535   1.0522   1.0462
     1.0329   0.9126   0.8803   0.8500   0.8471   0.8438   0.8401   0.8097
     0.8058   0.8039   0.7888   0.7741   0.7476   0.2773   0.2673   0.2626
     0.0078   0.0074   0.0071   0.0065   0.0061   0.0054   0.0052   0.0049
     0.0037   0.0035   0.0023   0.0016   0.0000   0.0000   0.0000   0.0000
     0.0000   0.0000   0.0000   0.0000   0.0000   0.0000   0.0000   0.0000
     0.0000   0.0000   0.0000   0.0000   0.0000   0.0000   0.0000   0.0000
     0.0000   0.0000   0.0000   0.0000   0.0000   0.0000   0.0000   0.0000
     0.0000   0.0000   0.0000   0.0000   0.0000   0.0000   0.0000   0.0000
     0.0000   0.0000   0.0000   0.0000   0.0000   0.0000   0.0000   0.0000
     0.0000   0.0000   0.0000   0.0000   0.0000   0.0000   0.0000   0.0000
     0.0000   0.0000   0.0000   0.0000   0.0000   0.0000   0.0000   0.0000
     0.0000   0.0000   0.0000   0.0000   0.0000   0.0000   0.0000   0.0000
     0.0000   0.0000   0.0000   0.0000   0.0000   0.0000

          k = 0.0000 0.0000-0.5000 (134800 PWs)   bands (ev):

    -5.7572  -5.7447  -5.3594  -5.3428  -5.3008  -5.2841  -5.2530  -5.2526
    -5.2403  -5.2213  -4.9262  -4.9037  -4.8615  -4.8405  -4.8147  -4.7976
    -4.7949  -4.7924  -4.7306  -4.7081  -4.4678  -4.4354  -4.3708  -4.3426
    -4.3362  -4.3332  -4.3240  -4.2162  -4.1112  -4.0924  -4.0394  -3.9912
    -3.9766  -3.9676  -3.9636  -3.9351  -3.9289  -3.9170  -3.8773  -3.8705
    -3.8656  -3.8596  -3.7954  -3.7064  -3.6570  -3.5982  -3.5596  -3.5376
    -3.5298  -3.5247  -3.5217  -3.5136  -3.5070  -3.5059  -3.5053  -3.5033
    -3.5005  -3.4913  -3.4311  -3.3169  -3.3151  -3.3094  -3.3040  -3.2896
    -3.2835  -3.2827  -3.2713  -3.2048  -3.1839  -3.1821  -3.1632  -3.1224
    -3.1146  -3.1102  -3.0922  -3.0081  -2.9018  -2.8842  -2.8581  -2.8361
    -2.8329  -2.8226  -2.8164  -2.8134  -2.7996  -2.7430  -2.6546  -2.6494
    -2.6443  -2.6407  -2.6378  -2.6366  -2.4920  -2.3216  -2.0987  -2.0900
    -2.0855  -2.0773  -2.0765  -2.0733  -2.0137  -1.9601  -1.7145  -1.7085
    -1.6953  -1.6917  -1.6869  -1.6816  -1.6410  -1.5857  -1.5761  -1.5663
    -1.4917  -1.4297  -1.2171  -1.2146  -1.1780  -1.1744  -1.1718  -1.1621
    -1.0993  -1.0820  -0.9087  -0.8623  -0.8264  -0.7749  -0.7615  -0.7467
    -0.7388  -0.7343  -0.7244  -0.7170  -0.7100  -0.6759  -0.6720  -0.6455
    -0.6190  -0.6025  -0.5618  -0.5558  -0.5543  -0.5520  -0.5473  -0.5282
    -0.4406  -0.3997  -0.3626  -0.3554  -0.2917  -0.1653  -0.1381  -0.1315
    -0.1227  -0.1177  -0.1021  -0.0919  -0.0687  -0.0468  -0.0333  -0.0078
     0.0051   0.0109   0.0272   0.0301   0.0333   0.0351   0.0395   0.0539
     0.0571   0.0653   0.0716   0.0782   0.0808   0.0852   0.1130   0.1205
     0.1540   0.2514   0.5128   0.7588   0.8282   0.8410   0.8706   0.8837
     0.8939   0.9072   1.0811   1.1164   1.2169   1.2814   1.3717   1.3927
     1.3987   1.4020   1.4404   1.5101   1.5472   1.5821   1.5967   1.6126
     1.6171   1.6945   1.7760   1.8049   1.8212   1.8335   1.8371   1.8506
     1.8694   1.8756   1.8891   1.9126   1.9373   1.9456   1.9522   1.9612
     1.9824   2.0043   2.0151   2.0533   2.1059   2.1376   2.1501   2.1608
     2.1792   2.1956   2.2084   2.2271   2.2477   2.2770   2.2842   2.2935
     2.3017   2.3053   2.3202   2.3268   2.3432   2.3603   2.4394   2.4761
     2.5338   2.5841   2.6472   2.6894   2.6983   2.7306   2.7558   2.8167
     2.8379   2.8548   2.8587   2.8627   2.8693   2.8745   2.8766   2.8855
     2.8946   2.9004   2.9106   2.9136   2.9181   2.9197   2.9241   2.9308
     2.9338   2.9377   2.9435   2.9611   2.9618   2.9709   2.9795   2.9867
     2.9919   2.9981   3.0033   3.0348   3.0387   3.0460   3.0642   3.0732
     3.0884   3.1318   3.1750   3.1911   3.2280   3.2334   3.2439   3.2578
     3.2688   3.2703   3.2861   3.2925   3.3017   3.3216   3.3292   3.3343
     3.3379   3.3420   3.3532   3.3553   3.3563   3.3636   3.3759   3.3807
     3.4102   3.4189   3.4289   3.4470   3.4588   3.4806   3.4972   3.5091
     3.5144   3.5174   3.5271   3.5852   3.6009   3.6271   3.6519   3.6752
     3.6937   3.7129   3.7293   3.7492   3.7718   3.8157   3.8459   3.8670
     3.8712   3.9073   3.9147   3.9154   3.9469   3.9594   3.9691   3.9759
     3.9806   3.9829   3.9844   3.9945   3.9970   4.0104   4.0119   4.0150
     4.0233   4.0414   4.0492   4.0606   4.0668   4.0750   4.0876   4.0916
     4.0966   4.1086   4.1239   4.1526   4.1678   4.1764   4.1863   4.1906
     4.2241   4.2679   4.2832   4.3044   4.3652   4.3720   4.3855   4.4002
     4.4057   4.4105   4.4134   4.4215   4.4242   4.4249   4.4294   4.4447
     4.4548   4.4567   4.4636   4.4684   4.4721   4.4827   4.4855   4.4914
     4.5031   4.5096   4.5268   4.5384   4.5644   4.5883   4.6010   4.6147
     4.6244   4.6510   4.6782   4.6909   4.6939   4.7085   4.7158   4.7262
     4.7557   4.7654   4.8029   4.8228   4.8254   4.8764   4.9043   4.9133
     4.9317   4.9546   5.2876   5.3005   5.3331   5.3424   5.3657   5.3699
     5.3731   5.3750   5.3787   5.3841   5.3857   5.3955   5.3989   5.4178
     5.4260   5.4348   5.4446   5.4559   5.6247   5.6410   5.6569   5.6631
     6.7390   6.7611   7.2131   7.2533   7.2891   7.3255   7.3271   7.3693
     7.3801   7.4050   7.4406   7.4485   7.4689   7.4700   7.4789   7.4953
     7.5066   7.5309   7.5527   7.5583   7.5874   7.5979   7.6839   7.6953
     7.7091   7.7362   7.7500   7.7876   7.8021   7.8366   7.8491   7.8630
     7.8672   7.8864   7.8988   7.9139   7.9182   7.9690   8.0046   8.0580
     8.0807   8.1496   8.1661   8.1771   8.1963   8.1980   8.2165   8.2304
     8.2647   8.2726   8.2857   8.3040   8.3106   8.3177   8.3299   8.3409
     8.3491   8.3543   8.3576   8.3716   8.3783   8.3810   8.3932   8.3971
     8.3991   8.4024   8.4157   8.4158   8.4261   8.4331   8.4434   8.4508
     8.4642   8.4773   8.4792   8.4935   8.5190   8.5272   8.5318   8.5454
     8.5512   8.5578   8.5603   8.5681   8.5779   8.5824

     occupation numbers 
     1.0000   1.0000   1.0000   1.0000   1.0000   1.0000   1.0000   1.0000
     1.0000   1.0000   1.0000   1.0000   1.0000   1.0000   1.0000   1.0000
     1.0000   1.0000   1.0000   1.0000   1.0000   1.0000   1.0000   1.0000
     1.0000   1.0000   1.0000   1.0000   1.0000   1.0000   1.0000   1.0000
     1.0000   1.0000   1.0000   1.0000   1.0000   1.0000   1.0000   1.0000
     1.0000   1.0000   1.0000   1.0000   1.0000   1.0000   1.0000   1.0000
     1.0000   1.0000   1.0000   1.0000   1.0000   1.0000   1.0000   1.0000
     1.0000   1.0000   1.0000   1.0000   1.0000   1.0000   1.0000   1.0000
     1.0000   1.0000   1.0000   1.0000   1.0000   1.0000   1.0000   1.0000
     1.0000   1.0000   1.0000   1.0000   1.0000   1.0000   1.0000   1.0000
     1.0000   1.0000   1.0000   1.0000   1.0000   1.0000   1.0000   1.0000
     1.0000   1.0000   1.0000   1.0000   1.0000   1.0000   1.0000   1.0000
     1.0000   1.0000   1.0000   1.0000   1.0000   1.0000   1.0000   1.0000
     1.0000   1.0000   1.0000   1.0000   1.0000   1.0000   1.0000   1.0000
     1.0000   1.0000   1.0000   1.0000   1.0000   1.0000   1.0000   1.0000
     1.0000   1.0000   1.0000   1.0000   1.0000   1.0000   1.0000   1.0000
     1.0000   1.0000   1.0000   1.0000   1.0000   1.0000   1.0000   1.0000
     1.0000   1.0000   1.0000   1.0000   1.0000   1.0000   1.0000   1.0000
     1.0000   1.0000   1.0000   1.0000   1.0000   1.0000   1.0000   1.0000
     1.0000   1.0000   1.0000   1.0000   1.0000   1.0000   1.0000   1.0000
     1.0000   1.0000   1.0000   1.0000   1.0000   1.0000   1.0000   1.0000
     1.0000   1.0000   1.0000   1.0000   1.0000   1.0000   1.0000   1.0000
     1.0000   1.0000   1.0000   1.0000   1.0000   1.0000   1.0000   1.0000
     1.0000   1.0000   1.0000   1.0000   1.0000   1.0000   1.0000   1.0000
     1.0000   1.0000   1.0000   1.0000   1.0000   1.0000   1.0000   1.0000
     1.0000   1.0000   1.0000   1.0000   1.0000   1.0000   1.0000   1.0000
     1.0000   1.0000   1.0000   1.0000   1.0000   1.0000   1.0000   1.0000
     1.0000   1.0000   1.0000   1.0000   1.0000   1.0000   1.0000   1.0000
     1.0000   1.0000   1.0000   1.0000   1.0000   1.0000   1.0000   1.0000
     1.0000   1.0000   1.0000   1.0000   1.0000   1.0000   1.0000   1.0000
     1.0000   1.0000   1.0000   1.0000   1.0000   1.0000   1.0000   1.0000
     1.0000   1.0000   1.0000   1.0000   1.0000   1.0000   1.0000   1.0000
     1.0000   1.0000   1.0000   1.0000   1.0000   1.0000   1.0000   1.0000
     1.0000   1.0000   1.0000   1.0000   1.0000   1.0000   1.0000   1.0000
     1.0000   1.0000   1.0000   1.0000   1.0000   1.0000   1.0000   1.0000
     1.0000   1.0000   1.0000   1.0000   1.0000   1.0000   1.0000   1.0000
     1.0000   1.0000   1.0000   1.0000   1.0000   1.0000   1.0000   1.0000
     1.0000   1.0000   1.0000   1.0000   1.0000   1.0000   1.0000   1.0000
     1.0001   1.0001   1.0001   1.0001   1.0001   1.0001   1.0001   1.0001
     1.0001   1.0001   1.0001   1.0002   1.0002   1.0003   1.0004   1.0004
     1.0005   1.0006   1.0006   1.0007   1.0008   1.0011   1.0014   1.0016
     1.0017   1.0021   1.0022   1.0022   1.0027   1.0029   1.0030   1.0032
     1.0032   1.0033   1.0033   1.0035   1.0036   1.0039   1.0039   1.0040
     1.0042   1.0046   1.0048   1.0051   1.0053   1.0056   1.0060   1.0061
     1.0063   1.0067   1.0072   1.0084   1.0091   1.0095   1.0100   1.0102
     1.0120   1.0147   1.0157   1.0173   1.0223   1.0230   1.0242   1.0257
     1.0262   1.0267   1.0270   1.0278   1.0281   1.0282   1.0287   1.0303
     1.0315   1.0317   1.0325   1.0330   1.0334   1.0347   1.0350   1.0357
     1.0372   1.0380   1.0401   1.0416   1.0451   1.0483   1.0500   1.0519
     1.0532   1.0569   1.0607   1.0624   1.0628   1.0647   1.0657   1.0670
     1.0707   1.0719   1.0760   1.0779   1.0781   1.0817   1.0829   1.0831
     1.0833   1.0831   0.9895   0.9818   0.9607   0.9543   0.9376   0.9344
     0.9321   0.9306   0.9278   0.9236   0.9224   0.9147   0.9119   0.8965
     0.8896   0.8821   0.8735   0.8635   0.6940   0.6763   0.6590   0.6521
     0.0120   0.0105   0.0005   0.0003   0.0003   0.0002   0.0002   0.0001
     0.0001   0.0001   0.0001   0.0001   0.0001   0.0001   0.0000   0.0000
     0.0000   0.0000   0.0000   0.0000   0.0000   0.0000   0.0000   0.0000
     0.0000   0.0000   0.0000   0.0000   0.0000   0.0000   0.0000   0.0000
     0.0000   0.0000   0.0000   0.0000   0.0000   0.0000   0.0000   0.0000
     0.0000   0.0000   0.0000   0.0000   0.0000   0.0000   0.0000   0.0000
     0.0000   0.0000   0.0000   0.0000   0.0000   0.0000   0.0000   0.0000
     0.0000   0.0000   0.0000   0.0000   0.0000   0.0000   0.0000   0.0000
     0.0000   0.0000   0.0000   0.0000   0.0000   0.0000   0.0000   0.0000
     0.0000   0.0000   0.0000   0.0000   0.0000   0.0000   0.0000   0.0000
     0.0000   0.0000   0.0000   0.0000   0.0000   0.0000

          k = 0.0000-0.5000-0.5000 (134912 PWs)   bands (ev):

    -5.6525  -5.6424  -5.6206  -5.6177  -5.2588  -5.2316  -5.1922  -5.1756
    -5.1397  -5.1372  -5.1025  -5.0955  -4.7961  -4.7490  -4.7320  -4.7140
    -4.6697  -4.6673  -4.6226  -4.6108  -4.3778  -4.3539  -4.3415  -4.3373
    -4.2840  -4.2558  -4.2493  -4.2475  -4.2438  -4.2421  -4.2391  -4.2355
    -4.2327  -4.2269  -4.1200  -4.1104  -3.9464  -3.8975  -3.8283  -3.8195
    -3.8012  -3.7893  -3.7800  -3.7776  -3.7621  -3.7604  -3.6866  -3.6684
    -3.6381  -3.6298  -3.6258  -3.6212  -3.6069  -3.6009  -3.5203  -3.5115
    -3.2352  -3.2115  -3.2084  -3.2001  -3.1648  -3.1625  -3.1574  -3.1534
    -3.1517  -3.1497  -3.1459  -3.1455  -3.1390  -3.1380  -3.0632  -3.0512
    -2.8893  -2.8793  -2.8762  -2.8674  -2.8554  -2.8547  -2.7886  -2.7785
    -2.7123  -2.7060  -2.7014  -2.7003  -2.6849  -2.6809  -2.6671  -2.6635
    -2.6586  -2.6566  -2.6525  -2.6517  -2.6378  -2.6353  -2.4759  -2.4668
    -2.3742  -2.3648  -2.3557  -2.3537  -2.3503  -2.3427  -2.1203  -2.0787
    -1.8685  -1.8651  -1.7807  -1.7664  -1.4686  -1.4646  -1.4083  -1.3824
    -0.9608  -0.9183  -0.9055  -0.8923  -0.8870  -0.8429  -0.8236  -0.8163
    -0.7799  -0.7721  -0.7656  -0.7435  -0.6803  -0.6581  -0.6495  -0.6446
    -0.6430  -0.6412  -0.6358  -0.6347  -0.6276  -0.6233  -0.6176  -0.6155
    -0.6061  -0.6007  -0.5727  -0.5693  -0.5589  -0.5563  -0.5428  -0.5357
    -0.5142  -0.4959  -0.4817  -0.4725  -0.4617  -0.4584  -0.4562  -0.4508
    -0.4444  -0.4400  -0.4376  -0.4299  -0.4289  -0.4217  -0.4189  -0.4055
    -0.4025  -0.3963  -0.3713  -0.3215  -0.2799  -0.2349   0.2334   0.3655
     0.4731   0.4977   0.5454   0.5709   0.5777   0.5988   0.6188   0.6253
     0.6540   0.6617   0.6688   0.6899   0.7177   0.7279   0.7431   0.7599
     0.7997   0.8106   0.8196   0.8208   0.8270   0.8333   0.8427   0.8765
     0.8875   0.8996   1.3112   1.5601   1.6708   1.7299   1.7330   1.7735
     1.8263   1.8935   1.9055   1.9160   1.9312   1.9695   1.9993   2.0084
     2.0284   2.1273   2.1365   2.1403   2.1433   2.1454   2.1498   2.1562
     2.1605   2.1631   2.1657   2.1694   2.1793   2.1883   2.1946   2.1973
     2.2088   2.2191   2.2251   2.2479   2.2689   2.3004   2.3171   2.3330
     2.3430   2.3741   2.3802   2.3862   2.4010   2.4203   2.4286   2.4546
     2.4698   2.4882   2.4973   2.5046   2.5133   2.5218   2.5272   2.5415
     2.5450   2.5538   2.5935   2.6157   2.6380   2.6554   2.6798   2.6977
     2.7137   2.7356   2.7743   2.8143   2.8626   2.8955   2.9204   2.9391
     2.9599   2.9669   2.9710   2.9740   2.9853   2.9905   3.0139   3.0205
     3.0373   3.0531   3.0564   3.0715   3.0752   3.0845   3.0974   3.1023
     3.1204   3.1346   3.1434   3.1538   3.1635   3.1684   3.1802   3.1893
     3.2191   3.2359   3.2558   3.2904   3.3627   3.4167   3.4200   3.4225
     3.4262   3.4272   3.4498   3.4523   3.4548   3.4621   3.4780   3.4862
     3.4916   3.4962   3.5079   3.5169   3.5187   3.5256   3.5442   3.5485
     3.5682   3.5814   3.5917   3.6075   3.6325   3.6380   3.6441   3.6554
     3.6637   3.6780   3.6823   3.6888   3.7091   3.7214   3.7419   3.7484
     3.7541   3.7672   3.7772   3.7871   3.7967   3.8011   3.8165   3.8331
     3.8487   3.8502   3.8534   3.8635   3.8794   3.9178   3.9983   4.0387
     4.0460   4.0675   4.0807   4.0816   4.0894   4.1001   4.1211   4.1249
     4.1326   4.1366   4.1424   4.1657   4.1698   4.1821   4.1993   4.2051
     4.2080   4.2208   4.2243   4.2623   4.2657   4.3102   4.3641   4.3787
     4.4098   4.4352   4.4537   4.4645   4.4774   4.4798   4.4894   4.4943
     4.5372   4.5550   4.5686   4.6220   4.6991   4.7173   4.7304   4.7324
     4.7408   4.7469   4.7528   4.7602   4.7623   4.7646   4.7688   4.7708
     4.7808   4.7872   4.8142   4.8158   4.8215   4.8262   4.8314   4.8337
     4.8411   4.8523   4.8668   4.8742   4.8806   4.8895   4.9189   4.9273
     4.9537   4.9657   4.9696   4.9774   4.9942   5.0057   5.0274   5.0590
     5.1125   5.1144   5.1378   5.1543   5.1608   5.1727   5.2059   5.2091
     5.2538   5.2932   5.3498   5.3811   5.8771   5.9017   5.9521   5.9620
     7.0158   7.0220   7.1164   7.1533   7.2703   7.3132   7.3156   7.3440
     7.3623   7.3774   7.3819   7.4047   7.4767   7.4799   7.5056   7.5089
     7.5497   7.5579   7.6243   7.6445   7.6759   7.6948   7.7132   7.7317
     7.7405   7.8172   7.8228   7.8337   7.8574   7.8667   7.8772   7.8782
     7.8956   7.8985   7.8995   7.9028   7.9092   7.9219   7.9282   7.9456
     7.9587   7.9635   7.9925   7.9937   7.9998   8.0161   8.0488   8.0555
     8.0817   8.0899   8.1024   8.1236   8.1448   8.1548   8.1615   8.1668
     8.1791   8.2094   8.2187   8.2446   8.3446   8.3562   8.4317   8.4468
     8.4911   8.5012   8.5034   8.5075   8.5166   8.5241   8.5341   8.5525
     8.5577   8.5989   8.6120   8.6288   8.6312   8.6559   8.6590   8.6666
     8.6739   8.6856   8.6877   8.6915   8.6961   8.7013

     occupation numbers 
     1.0000   1.0000   1.0000   1.0000   1.0000   1.0000   1.0000   1.0000
     1.0000   1.0000   1.0000   1.0000   1.0000   1.0000   1.0000   1.0000
     1.0000   1.0000   1.0000   1.0000   1.0000   1.0000   1.0000   1.0000
     1.0000   1.0000   1.0000   1.0000   1.0000   1.0000   1.0000   1.0000
     1.0000   1.0000   1.0000   1.0000   1.0000   1.0000   1.0000   1.0000
     1.0000   1.0000   1.0000   1.0000   1.0000   1.0000   1.0000   1.0000
     1.0000   1.0000   1.0000   1.0000   1.0000   1.0000   1.0000   1.0000
     1.0000   1.0000   1.0000   1.0000   1.0000   1.0000   1.0000   1.0000
     1.0000   1.0000   1.0000   1.0000   1.0000   1.0000   1.0000   1.0000
     1.0000   1.0000   1.0000   1.0000   1.0000   1.0000   1.0000   1.0000
     1.0000   1.0000   1.0000   1.0000   1.0000   1.0000   1.0000   1.0000
     1.0000   1.0000   1.0000   1.0000   1.0000   1.0000   1.0000   1.0000
     1.0000   1.0000   1.0000   1.0000   1.0000   1.0000   1.0000   1.0000
     1.0000   1.0000   1.0000   1.0000   1.0000   1.0000   1.0000   1.0000
     1.0000   1.0000   1.0000   1.0000   1.0000   1.0000   1.0000   1.0000
     1.0000   1.0000   1.0000   1.0000   1.0000   1.0000   1.0000   1.0000
     1.0000   1.0000   1.0000   1.0000   1.0000   1.0000   1.0000   1.0000
     1.0000   1.0000   1.0000   1.0000   1.0000   1.0000   1.0000   1.0000
     1.0000   1.0000   1.0000   1.0000   1.0000   1.0000   1.0000   1.0000
     1.0000   1.0000   1.0000   1.0000   1.0000   1.0000   1.0000   1.0000
     1.0000   1.0000   1.0000   1.0000   1.0000   1.0000   1.0000   1.0000
     1.0000   1.0000   1.0000   1.0000   1.0000   1.0000   1.0000   1.0000
     1.0000   1.0000   1.0000   1.0000   1.0000   1.0000   1.0000   1.0000
     1.0000   1.0000   1.0000   1.0000   1.0000   1.0000   1.0000   1.0000
     1.0000   1.0000   1.0000   1.0000   1.0000   1.0000   1.0000   1.0000
     1.0000   1.0000   1.0000   1.0000   1.0000   1.0000   1.0000   1.0000
     1.0000   1.0000   1.0000   1.0000   1.0000   1.0000   1.0000   1.0000
     1.0000   1.0000   1.0000   1.0000   1.0000   1.0000   1.0000   1.0000
     1.0000   1.0000   1.0000   1.0000   1.0000   1.0000   1.0000   1.0000
     1.0000   1.0000   1.0000   1.0000   1.0000   1.0000   1.0000   1.0000
     1.0000   1.0000   1.0000   1.0000   1.0000   1.0000   1.0000   1.0000
     1.0000   1.0000   1.0000   1.0000   1.0000   1.0000   1.0000   1.0000
     1.0000   1.0000   1.0000   1.0000   1.0000   1.0000   1.0000   1.0000
     1.0000   1.0000   1.0000   1.0000   1.0000   1.0000   1.0000   1.0000
     1.0000   1.0000   1.0000   1.0000   1.0000   1.0000   1.0000   1.0000
     1.0000   1.0000   1.0000   1.0000   1.0000   1.0000   1.0000   1.0000
     1.0000   1.0000   1.0000   1.0000   1.0000   1.0001   1.0001   1.0001
     1.0001   1.0001   1.0001   1.0001   1.0001   1.0001   1.0001   1.0001
     1.0001   1.0001   1.0001   1.0001   1.0001   1.0001   1.0002   1.0002
     1.0002   1.0002   1.0002   1.0003   1.0003   1.0003   1.0003   1.0004
     1.0004   1.0004   1.0004   1.0005   1.0005   1.0006   1.0007   1.0007
     1.0008   1.0008   1.0009   1.0009   1.0010   1.0010   1.0012   1.0013
     1.0014   1.0014   1.0015   1.0016   1.0017   1.0022   1.0036   1.0045
     1.0047   1.0053   1.0057   1.0058   1.0060   1.0064   1.0071   1.0073
     1.0076   1.0077   1.0080   1.0090   1.0092   1.0098   1.0106   1.0109
     1.0111   1.0118   1.0120   1.0143   1.0145   1.0177   1.0222   1.0236
     1.0266   1.0293   1.0313   1.0326   1.0341   1.0343   1.0355   1.0361
     1.0415   1.0438   1.0456   1.0529   1.0635   1.0659   1.0676   1.0678
     1.0689   1.0696   1.0704   1.0713   1.0715   1.0718   1.0723   1.0725
     1.0736   1.0743   1.0771   1.0772   1.0777   1.0781   1.0786   1.0788
     1.0794   1.0802   1.0812   1.0816   1.0819   1.0823   1.0832   1.0833
     1.0831   1.0828   1.0826   1.0823   1.0813   1.0804   1.0781   1.0737
     1.0626   1.0621   1.0556   1.0505   1.0483   1.0441   1.0310   1.0297
     1.0083   0.9862   0.9491   0.9259   0.4197   0.3949   0.3459   0.3366
     0.0020   0.0019   0.0010   0.0007   0.0003   0.0002   0.0002   0.0002
     0.0001   0.0001   0.0001   0.0001   0.0000   0.0000   0.0000   0.0000
     0.0000   0.0000   0.0000   0.0000   0.0000   0.0000   0.0000   0.0000
     0.0000   0.0000   0.0000   0.0000   0.0000   0.0000   0.0000   0.0000
     0.0000   0.0000   0.0000   0.0000   0.0000   0.0000   0.0000   0.0000
     0.0000   0.0000   0.0000   0.0000   0.0000   0.0000   0.0000   0.0000
     0.0000   0.0000   0.0000   0.0000   0.0000   0.0000   0.0000   0.0000
     0.0000   0.0000   0.0000   0.0000   0.0000   0.0000   0.0000   0.0000
     0.0000   0.0000   0.0000   0.0000   0.0000   0.0000   0.0000   0.0000
     0.0000   0.0000   0.0000   0.0000   0.0000   0.0000   0.0000   0.0000
     0.0000   0.0000   0.0000   0.0000   0.0000   0.0000

          k =-0.5000-0.5000-0.5000 (134688 PWs)   bands (ev):

    -5.5488  -5.5442  -5.5355  -5.5279  -5.5150  -5.4994  -5.4849  -5.4717
    -4.8131  -4.7842  -4.7552  -4.6918  -4.6297  -4.5749  -4.5732  -4.5687
    -4.5672  -4.5652  -4.5639  -4.5622  -4.5614  -4.5576  -4.5560  -4.5544
    -4.5501  -4.5497  -4.5484  -4.5470  -4.5449  -4.5386  -4.3683  -4.3324
    -3.9084  -3.8831  -3.8571  -3.8562  -3.8210  -3.7748  -3.7741  -3.7674
    -3.7670  -3.7638  -3.7588  -3.7583  -3.7537  -3.7499  -3.7466  -3.7458
    -3.7442  -3.7405  -3.7393  -3.7276  -3.7039  -3.6974  -3.5972  -3.5774
    -3.5340  -3.5314  -3.4887  -3.4776  -2.9058  -2.9021  -2.8965  -2.8803
    -2.8576  -2.8164  -2.8111  -2.8096  -2.8075  -2.8057  -2.8046  -2.8026
    -2.7968  -2.7946  -2.7936  -2.7912  -2.7867  -2.7856  -2.7748  -2.7680
    -2.7603  -2.7592  -2.6939  -2.6796  -2.6293  -2.6238  -2.6172  -2.6106
    -2.6082  -2.6073  -2.6043  -2.6037  -2.6009  -2.5968  -2.5965  -2.5943
    -2.5929  -2.5920  -2.5890  -2.5859  -2.5824  -2.5814  -2.5796  -2.5746
    -2.5627  -2.5563  -1.9980  -1.9235  -1.0285  -1.0001  -0.9576  -0.9300
    -0.8897  -0.8448  -0.8406  -0.8108  -0.7853  -0.7807  -0.7771  -0.7716
    -0.7656  -0.7632  -0.7485  -0.7472  -0.7449  -0.7434  -0.7383  -0.7373
    -0.7350  -0.7335  -0.7275  -0.7251  -0.6949  -0.6630  -0.5901  -0.5796
    -0.5345  -0.5241  -0.5100  -0.5057  -0.5022  -0.4981  -0.4874  -0.4850
    -0.4817  -0.4781  -0.4749  -0.4702  -0.4690  -0.4665  -0.4638  -0.4632
    -0.4589  -0.4543  -0.4537  -0.4340  -0.4313  -0.4282  -0.1468  -0.1365
    -0.0534  -0.0316  -0.0188   0.0073   0.0345   0.0748   0.0782   0.0792
     0.0819   0.0854   0.0877   0.0891   0.0920   0.0939   0.0963   0.0976
     0.1013   0.1238   0.1276   0.1624   0.2426   0.2891   0.7892   1.0354
     1.2833   1.3408   1.3609   1.4565   1.4944   1.5963   1.6180   1.6320
     1.6347   1.6380   1.6389   1.6425   1.6478   1.6492   1.6567   1.6570
     1.6602   1.6663   1.6699   1.6719   1.6793   1.6898   1.8389   1.8994
     2.0123   2.0224   2.0431   2.0479   2.0512   2.0627   2.0652   2.0679
     2.0744   2.0797   2.0887   2.0938   2.0952   2.0979   2.1021   2.1034
     2.1086   2.1138   2.1354   2.1744   2.1881   2.1931   2.2084   2.2573
     2.3074   2.3552   2.4083   2.4128   2.4208   2.4227   2.4355   2.4388
     2.4526   2.4549   2.4596   2.4664   2.4732   2.4882   2.4901   2.4962
     2.5201   2.5232   2.5353   2.5384   2.5432   2.5562   2.6364   2.6943
     2.8489   2.8676   2.9189   2.9314   2.9389   2.9683   2.9912   2.9951
     3.0261   3.0321   3.0409   3.0448   3.0510   3.0557   3.0578   3.0809
     3.0822   3.0891   3.1043   3.1067   3.1155   3.1194   3.1766   3.1913
     3.2174   3.2268   3.2390   3.2507   3.2613   3.2637   3.2701   3.2846
     3.2958   3.2995   3.3079   3.3145   3.3184   3.3346   3.3740   3.3905
     3.4038   3.4077   3.4221   3.4323   3.4406   3.4436   3.4502   3.4560
[...]
     atom   30 type  1   force =    -0.00000175   -0.00000501   -0.00000154
     atom   31 type  1   force =    -0.00000016   -0.00000188   -0.00000036
     atom   32 type  1   force =    -0.00000486   -0.00000503   -0.00000297
     atom   33 type  1   force =    -0.00000378   -0.00000289   -0.00000275
     atom   34 type  1   force =     0.00000039   -0.00000036   -0.00000250
     atom   35 type  1   force =     0.00000539    0.00000094    0.00000094
     atom   36 type  1   force =    -0.00000202   -0.00000175   -0.00000156
     atom   37 type  1   force =     0.00000210   -0.00000033    0.00000133
     atom   38 type  1   force =    -0.00000500   -0.00000074   -0.00000011
     atom   39 type  1   force =    -0.00000249   -0.00000130   -0.00000111
     atom   40 type  1   force =    -0.00000622   -0.00000260    0.00000205
     atom   41 type  1   force =    -0.00000477   -0.00000310    0.00000230
     atom   42 type  1   force =    -0.00000006   -0.00000150    0.00000021
     atom   43 type  1   force =     0.00000337   -0.00000296   -0.00000126
     atom   44 type  1   force =    -0.00000189   -0.00000318    0.00000365
     atom   45 type  1   force =    -0.00000051   -0.00000391    0.00000215
     atom   46 type  1   force =    -0.00000517   -0.00000545    0.00000121
     atom   47 type  1   force =    -0.00000475   -0.00000325    0.00000215
     atom   48 type  1   force =    -0.00000339   -0.00000191    0.00000082
     atom   49 type  1   force =    -0.00000382    0.00000222    0.00000048
     atom   50 type  1   force =    -0.00000399    0.00000259    0.00000156
     atom   51 type  1   force =    -0.00000434    0.00000267   -0.00000054
     atom   52 type  1   force =     0.00000006   -0.00000285    0.00000186
     atom   53 type  1   force =     0.00000124   -0.00000347    0.00000265
     atom   54 type  1   force =    -0.00000429    0.00000451   -0.00000079
     atom   55 type  1   force =    -0.00000604    0.00000352   -0.00000310
     atom   56 type  1   force =    -0.00000211   -0.00000101   -0.00000112
     atom   57 type  1   force =     0.00000041   -0.00000172    0.00000019
     atom   58 type  1   force =     0.00000004   -0.00000144    0.00000033
     atom   59 type  1   force =     0.00000044   -0.00000190    0.00000092
     atom   60 type  1   force =     0.00000258   -0.00000061   -0.00000209
     atom   61 type  1   force =     0.00000612   -0.00000431   -0.00000272
     atom   62 type  1   force =    -0.00000145   -0.00000074   -0.00000162
     atom   63 type  1   force =    -0.00000129    0.00000195   -0.00000083
     atom   64 type  1   force =    -0.00000401   -0.00000293    0.00000012
     atom   65 type  1   force =    -0.00000283   -0.00000124   -0.00000001
     atom   66 type  1   force =     0.00000049   -0.00000042   -0.00000158
     atom   67 type  1   force =     0.00000026    0.00000101   -0.00000125
     atom   68 type  1   force =    -0.00000043   -0.00000148    0.00000058
     atom   69 type  1   force =     0.00000005   -0.00000209    0.00000083
     atom   70 type  1   force =    -0.00000423    0.00000283    0.00000369
     atom   71 type  1   force =    -0.00000419    0.00000303    0.00000204
     atom   72 type  1   force =    -0.00000183    0.00000504    0.00000045
     atom   73 type  1   force =     0.00000136    0.00000531    0.00000019
     atom   74 type  1   force =     0.00000348    0.00000376    0.00000003
     atom   75 type  1   force =     0.00000463   -0.00000112    0.00000055
     atom   76 type  1   force =     0.00000495    0.00000414   -0.00000080
     atom   77 type  1   force =     0.00000638    0.00000430   -0.00000190
     atom   78 type  1   force =    -0.00000200    0.00000463   -0.00000138
     atom   79 type  1   force =     0.00000019    0.00000169   -0.00000321
     atom   80 type  1   force =    -0.00000028    0.00000157    0.00000035
     atom   81 type  1   force =     0.00000082    0.00000188   -0.00000070
     atom   82 type  1   force =     0.00000444    0.00000301   -0.00000165
     atom   83 type  1   force =     0.00000532    0.00000240   -0.00000146
     atom   84 type  1   force =     0.00000067   -0.00000034   -0.00000065
     atom   85 type  1   force =     0.00000206    0.00000437    0.00000075
     atom   86 type  1   force =     0.00000034    0.00000144   -0.00000030
     atom   87 type  1   force =     0.00000262    0.00000321    0.00000167
     atom   88 type  1   force =     0.00000033    0.00000119   -0.00000108
     atom   89 type  1   force =     0.00000213    0.00000504    0.00000005
     atom   90 type  1   force =     0.00000212    0.00000356    0.00000130
     atom   91 type  1   force =     0.00000388    0.00000438    0.00000126
     atom   92 type  1   force =     0.00000357    0.00000298    0.00000084
     atom   93 type  1   force =     0.00000576    0.00000412    0.00000232
     atom   94 type  1   force =    -0.00000071    0.00000519    0.00000179
     atom   95 type  1   force =     0.00000097    0.00000188   -0.00000002
     atom   96 type  1   force =    -0.00000120   -0.00000153    0.00000063
     atom   97 type  1   force =    -0.00000034   -0.00000192    0.00000008
     atom   98 type  1   force =     0.00000144   -0.00000114   -0.00000003
     atom   99 type  1   force =     0.00000014   -0.00000248   -0.00000108
     atom  100 type  1   force =     0.00000134   -0.00000181    0.00000021
     atom  101 type  1   force =     0.00000164   -0.00000173    0.00000100
     atom  102 type  1   force =    -0.00000032   -0.00000224    0.00000086
     atom  103 type  1   force =     0.00000068   -0.00000090    0.00000252
     atom  104 type  1   force =     0.00000038    0.00000032   -0.00000337
     atom  105 type  1   force =     0.00000348    0.00000162   -0.00000055
     atom  106 type  1   force =     0.00000068    0.00000038    0.00000145
     atom  107 type  1   force =     0.00000082   -0.00000033    0.00000231
     atom  108 type  1   force =     0.00000396    0.00000217    0.00000004
     atom  109 type  1   force =     0.00000470   -0.00000026    0.00000034
     atom  110 type  1   force =     0.00000318    0.00000535   -0.00000177
     atom  111 type  1   force =     0.00000385    0.00000070   -0.00000061
     atom  112 type  1   force =     0.00000215   -0.00000006    0.00000189
     atom  113 type  1   force =     0.00000249   -0.00000197    0.00000153
     atom  114 type  1   force =     0.00000390   -0.00000118   -0.00000096
     atom  115 type  1   force =     0.00000263    0.00000005   -0.00000063
     atom  116 type  1   force =     0.00000283   -0.00000196   -0.00000326
     atom  117 type  1   force =     0.00000260   -0.00000263   -0.00000023
     atom  118 type  1   force =     0.00000303   -0.00000338   -0.00000179
     atom  119 type  1   force =     0.00000025   -0.00000312    0.00000106
     atom  120 type  1   force =     0.00000229   -0.00000334    0.00000204
     atom  121 type  1   force =     0.00000403   -0.00000147   -0.00000004
     atom  122 type  1   force =     0.00000626    0.00000340    0.00000038
     atom  123 type  1   force =     0.00000007   -0.00000245    0.00000225
     atom  124 type  1   force =     0.00000107   -0.00000196    0.00000272
     atom  125 type  1   force =     0.00000026   -0.00000243    0.00000260
     atom  126 type  1   force =     0.00000187   -0.00000125    0.00000163
     atom  127 type  1   force =     0.00000214   -0.00000210    0.00000256
     atom  128 type  1   force =     0.00000224   -0.00000626    0.00000370
     atom  129 type  1   force =     0.00000111   -0.00000397    0.00000181
     atom  130 type  1   force =     0.00000150   -0.00000155   -0.00000084
     atom  131 type  1   force =    -0.00000150   -0.00000065   -0.00000038
     atom  132 type  1   force =     0.00000004   -0.00000602   -0.00000027
     atom  133 type  1   force =     0.00000215   -0.00000457   -0.00000024
     atom  134 type  1   force =     0.00000101   -0.00000317   -0.00000156
     atom  135 type  1   force =     0.00000392   -0.00000122   -0.00000626
     atom  136 type  1   force =     0.00000440   -0.00000438   -0.00000379
     atom  137 type  1   force =     0.00000141   -0.00000479   -0.00000211
     atom  138 type  1   force =     0.00000175   -0.00000111    0.00000034
     atom  139 type  1   force =     0.00000460   -0.00000313   -0.00000254
     atom  140 type  1   force =     0.00000306   -0.00000321   -0.00000180
     atom  141 type  1   force =     0.00000051   -0.00000138   -0.00000135
     atom  142 type  1   force =     0.00000209    0.00000246    0.00000046
     atom  143 type  1   force =     0.00000661    0.00000462    0.00000204
     atom  144 type  1   force =     0.00000614    0.00000249    0.00000152
     atom  145 type  1   force =     0.00000198    0.00000076    0.00000072
     atom  146 type  1   force =    -0.00000031   -0.00000427    0.00000015
     atom  147 type  1   force =     0.00000090    0.00000675   -0.00000149
     atom  148 type  1   force =    -0.00000373    0.00000417   -0.00000427
     atom  149 type  1   force =     0.00000645    0.00000117   -0.00000028
     atom  150 type  1   force =     0.00000479   -0.00000338   -0.00000086
     atom  151 type  1   force =     0.00000532    0.00000404   -0.00000402
     atom  152 type  1   force =     0.00000386    0.00000553   -0.00000541
     atom  153 type  1   force =     0.00000095    0.00000264   -0.00000429
     atom  154 type  1   force =    -0.00000323   -0.00000164   -0.00000466
     atom  155 type  1   force =     0.00000073    0.00000486   -0.00000282
     atom  156 type  1   force =    -0.00000103    0.00000581    0.00000037
     atom  157 type  1   force =     0.00000417    0.00000529   -0.00000202
     atom  158 type  1   force =     0.00000222    0.00000347    0.00000108
     atom  159 type  1   force =     0.00000230    0.00000307    0.00000188
     atom  160 type  1   force =     0.00000460    0.00000444    0.00000500
     atom  161 type  1   force =     0.00000046    0.00000560    0.00000208
     atom  162 type  1   force =    -0.00000282   -0.00000034    0.00000315
     atom  163 type  1   force =     0.00000065    0.00000709    0.00000456
     atom  164 type  1   force =    -0.00000229    0.00000445    0.00000368
     atom  165 type  1   force =     0.00000492    0.00000391    0.00000284
     atom  166 type  1   force =     0.00000431   -0.00000250    0.00000110
     atom  167 type  1   force =     0.00000336   -0.00000384   -0.00000104
     atom  168 type  1   force =     0.00000220   -0.00000489   -0.00000010
     atom  169 type  1   force =    -0.00000032   -0.00000391   -0.00000293
     atom  170 type  1   force =    -0.00000042   -0.00000202   -0.00000088
     atom  171 type  1   force =     0.00000120   -0.00000649    0.00000048
     atom  172 type  1   force =    -0.00000164   -0.00000626   -0.00000053
     atom  173 type  1   force =     0.00000100   -0.00000308    0.00000112
     atom  174 type  1   force =     0.00000002   -0.00000202    0.00000173
     atom  175 type  1   force =     0.00000406   -0.00000269    0.00000074
     atom  176 type  1   force =     0.00000079   -0.00000282    0.00000093
     atom  177 type  1   force =    -0.00000171   -0.00000388    0.00000194
     atom  178 type  1   force =    -0.00000349   -0.00000261    0.00000088
     atom  179 type  1   force =    -0.00000207   -0.00000147   -0.00000024
     atom  180 type  1   force =    -0.00000594   -0.00000241    0.00000166
     atom  181 type  1   force =     0.00000132   -0.00000041    0.00000179
     atom  182 type  1   force =    -0.00000338   -0.00000270    0.00000071
     atom  183 type  1   force =     0.00000330    0.00000141    0.00000086
     atom  184 type  1   force =    -0.00000061   -0.00000196   -0.00000036
     atom  185 type  1   force =    -0.00000243   -0.00000284    0.00000055
     atom  186 type  1   force =    -0.00000575   -0.00000426    0.00000002
     atom  187 type  1   force =    -0.00000011   -0.00000258    0.00000011
     atom  188 type  1   force =    -0.00000108   -0.00000447   -0.00000027
     atom  189 type  1   force =     0.00000224   -0.00000081   -0.00000243
     atom  190 type  1   force =    -0.00000018   -0.00000241   -0.00000350
     atom  191 type  1   force =     0.00000258   -0.00000129   -0.00000292
     atom  192 type  1   force =     0.00000218    0.00000219    0.00000022
     atom  193 type  1   force =     0.00000006    0.00000416    0.00000177
     atom  194 type  1   force =    -0.00000356    0.00000357    0.00000111
     atom  195 type  1   force =    -0.00000001    0.00000134    0.00000010
     atom  196 type  1   force =    -0.00000271    0.00000129   -0.00000123
     atom  197 type  1   force =     0.00000515    0.00000199   -0.00000005
     atom  198 type  1   force =     0.00000285    0.00000398   -0.00000253
     atom  199 type  1   force =    -0.00000047   -0.00000160    0.00000292
     atom  200 type  1   force =    -0.00000175   -0.00000310   -0.00000006
     atom  201 type  1   force =    -0.00000071    0.00000150   -0.00000370
     atom  202 type  1   force =    -0.00000161    0.00000389   -0.00000451
     atom  203 type  1   force =    -0.00000308   -0.00000365    0.00000062
     atom  204 type  1   force =    -0.00000336   -0.00000330   -0.00000138
     atom  205 type  1   force =    -0.00000058   -0.00000441   -0.00000112
     atom  206 type  1   force =     0.00000074    0.00000054   -0.00000081
     atom  207 type  1   force =    -0.00000030   -0.00000414   -0.00000016
     atom  208 type  1   force =    -0.00000185   -0.00000514    0.00000063
     atom  209 type  1   force =    -0.00000207   -0.00000243    0.00000112
     atom  210 type  1   force =    -0.00000099    0.00000334    0.00000416
     atom  211 type  1   force =    -0.00000430   -0.00000364   -0.00000056
     atom  212 type  1   force =    -0.00000278    0.00000254    0.00000199
     atom  213 type  1   force =     0.00000253   -0.00000284    0.00000061
     atom  214 type  1   force =     0.00000402    0.00000325    0.00000446
     atom  215 type  2   force =    -0.00000140    0.00000101    0.00000119
     atom  216 type  2   force =    -0.00000163    0.00000100   -0.00000013
     atom  217 type  2   force =     0.00000065   -0.00000033    0.00000013
     atom  218 type  2   force =    -0.00000078    0.00000099    0.00000101
     atom  219 type  2   force =     0.00000047    0.00000163   -0.00000107
     atom  220 type  2   force =     0.00000076    0.00000032    0.00000035
     atom  221 type  2   force =     0.00000030   -0.00000116   -0.00000080
     atom  222 type  2   force =     0.00000110    0.00000000    0.00000015

     Total force =     0.063850     Total SCF correction =     0.000074


     Computing stress (Cartesian axis) and pressure

          total   stress  (Ry/bohr**3)                   (kbar)     P=   14.28
   0.00010075  -0.00000140   0.00000870         14.82     -0.21      1.28
  -0.00000140   0.00009402  -0.00000151         -0.21     13.83     -0.22
   0.00000870  -0.00000151   0.00009655          1.28     -0.22     14.20

     kinetic stress (kbar)   2272.35     -0.06      0.82
                               -0.06   2271.12     -0.06
                                0.82     -0.06   2271.54

     local   stress (kbar)  -1245.54      6.51    -20.37
                                6.51  -1250.42      6.48
                              -20.37      6.48  -1250.13

     nonloc. stress (kbar)   2563.38     -0.25      0.85
                               -0.25   2563.96     -0.26
                                0.85     -0.26   2563.78

     hartree stress (kbar)    217.54     -2.25      6.93
                               -2.25    218.13     -2.21
                                6.93     -2.21    218.36

     exc-cor stress (kbar)   -803.14     -0.02      0.07
                               -0.02   -803.14     -0.02
                                0.07     -0.02   -803.13

     corecor stress (kbar)      0.00      0.00      0.00
                                0.00      0.00      0.00
                                0.00      0.00      0.00

     ewald   stress (kbar)  -2989.77     -4.13     12.97
                               -4.13  -2985.81     -4.15
                               12.97     -4.15  -2986.21

     hubbard stress (kbar)      0.00      0.00      0.00
                                0.00      0.00      0.00
                                0.00      0.00      0.00

     london  stress (kbar)      0.00      0.00      0.00
                                0.00      0.00      0.00
                                0.00      0.00      0.00

     DFT-D3  stress (kbar)      0.00      0.00      0.00
                                0.00      0.00      0.00
                                0.00      0.00      0.00

     XDM     stress (kbar)      0.00      0.00      0.00
                                0.00      0.00      0.00
                                0.00      0.00      0.00

     dft-nl  stress (kbar)      0.00      0.00      0.00
                                0.00      0.00      0.00
                                0.00      0.00      0.00

     TS-vdW  stress (kbar)      0.00      0.00      0.00
                                0.00      0.00      0.00
                                0.00      0.00      0.00



     Writing output data file divacancy_optimize3.save

     init_run     :    245.36s CPU    252.01s WALL (       1 calls)
     electrons    :   9053.65s CPU   9351.38s WALL (       1 calls)
     forces       :     82.58s CPU     83.19s WALL (       1 calls)
     stress       :    791.69s CPU    794.95s WALL (       1 calls)

     Called by init_run:
     wfcinit      :    242.05s CPU    248.62s WALL (       1 calls)
     wfcinit:atom :      0.77s CPU      1.56s WALL (       8 calls)
     wfcinit:wfcr :    230.51s CPU    235.43s WALL (       8 calls)
     potinit      :      0.40s CPU      0.43s WALL (       1 calls)

     Called by electrons:
     c_bands      :   8377.06s CPU   8641.98s WALL (      19 calls)
     sum_band     :    670.77s CPU    692.50s WALL (      19 calls)
     v_of_rho     :      4.83s CPU      5.02s WALL (      19 calls)
     v_h          :      0.29s CPU      0.31s WALL (      19 calls)
     v_xc         :      4.54s CPU      4.72s WALL (      19 calls)
     mix_rho      :      1.00s CPU      1.17s WALL (      19 calls)

     Called by c_bands:
     init_us_2    :     29.77s CPU     31.98s WALL (     328 calls)
     cegterg      :   8315.65s CPU   8549.80s WALL (     152 calls)

     Called by sum_band:

     Called by *egterg:
     h_psi        :   4693.86s CPU   4805.08s WALL (     819 calls)
     g_psi        :     12.16s CPU     12.19s WALL (     659 calls)
     cdiaghg      :   1301.43s CPU   1304.61s WALL (     803 calls)
     cegterg:over :   1026.16s CPU   1034.58s WALL (     659 calls)
     cegterg:upda :    658.78s CPU    665.35s WALL (     659 calls)
     cegterg:last :    392.16s CPU    395.57s WALL (     152 calls)

     Called by h_psi:
     h_psi:pot    :   4671.89s CPU   4780.46s WALL (     819 calls)
     h_psi:calbec :    877.30s CPU    886.00s WALL (     819 calls)
     vloc_psi     :   2922.21s CPU   3018.96s WALL (     819 calls)
     add_vuspsi   :    872.36s CPU    875.49s WALL (     819 calls)

     General routines
     calbec       :    970.97s CPU    979.97s WALL (     859 calls)
     fft          :      2.67s CPU      2.88s WALL (     218 calls)
     fftw         :   3153.41s CPU   3265.03s WALL (  459092 calls)

     Parallel routines
     fft_scatt_xy :    479.59s CPU    481.77s WALL (  459310 calls)
     fft_scatt_yz :    545.50s CPU    646.03s WALL (  459310 calls)

     PWSCF        :     2h49m CPU        2h54m WALL


   This run was terminated on:  11:31:18   7Nov2020            

=------------------------------------------------------------------------------=
   JOB DONE.
=------------------------------------------------------------------------------=
