
     Program PWSCF v.6.2 (svn rev. 14038) starts on  7Nov2020 at  8:48:44 

     This program is part of the open-source Quantum ESPRESSO suite
     for quantum simulation of materials; please cite
         "P. Giannozzi et al., J. Phys.:Condens. Matter 21 395502 (2009);
         "P. Giannozzi et al., J. Phys.:Condens. Matter 29 465901 (2017);
          URL http://www.quantum-espresso.org", 
     in publications or presentations arising from this work. More details at
     http://www.quantum-espresso.org/quote

     Parallel version (MPI), running on     8 processors

     MPI processes distributed on     1 nodes
     R & G space division:  proc/nbgrp/npool/nimage =       8
     Waiting for input...
     Reading input from standard input
Warning: card &IONS ignored
Warning: card / ignored

     Current dimensions of program PWSCF are:
     Max number of different atomic species (ntypx) = 10
     Max number of k-points (npk) =  40000
     Max angular momentum in pseudopotentials (lmaxx) =  3

     Subspace diagonalization in iterative solution of the eigenvalue problem:
     a serial algorithm will be used


     Parallelization info
     --------------------
     sticks:   dense  smooth     PW     G-vecs:    dense   smooth      PW
     Min        1589    1589    419               134811   134811   18265
     Max        1590    1590    420               134814   134814   18266
     Sum       12717   12717   3357              1078507  1078507  146125



     bravais-lattice index     =            0
     lattice parameter (alat)  =      30.8403  a.u.
     unit-cell volume          =   29332.9180 (a.u.)^3
     number of atoms/cell      =          224
     number of atomic types    =            2
     number of electrons       =       866.00
     number of Kohn-Sham states=          520
     kinetic-energy cutoff     =      42.0000  Ry
     charge density cutoff     =     168.0000  Ry
     convergence threshold     =      1.0E-08
     mixing beta               =       0.3000
     number of iterations used =            8  plain     mixing
     Exchange-correlation      = SLA-PW-PBX-PBC ( 1  4  3  4 0 0)

     celldm(1)=  30.840288  celldm(2)=   0.000000  celldm(3)=   0.000000
     celldm(4)=   0.000000  celldm(5)=   0.000000  celldm(6)=   0.000000

     crystal axes: (cart. coord. in units of alat)
               a(1) = (   1.000000   0.000000   0.000000 )  
               a(2) = (   0.000000   1.000000   0.000000 )  
               a(3) = (   0.000000   0.000000   1.000000 )  

     reciprocal axes: (cart. coord. in units 2 pi/alat)
               b(1) = (  1.000000  0.000000  0.000000 )  
               b(2) = (  0.000000  1.000000  0.000000 )  
               b(3) = (  0.000000  0.000000  1.000000 )  


     PseudoPot. # 1 for Si read from file:
     ./Si.pbe-hgh.UPF
     MD5 check sum: 9a9f0f6e09139bfdb36b03ff6bc35900
     Pseudo is Norm-conserving, Zval =  4.0
     Generated in analytical, separable form
     Using radial grid of 1141 points,  3 beta functions with: 
                l(1) =   0
                l(2) =   0
                l(3) =   1

     PseudoPot. # 2 for H  read from file:
     ./H.pbe-hgh.UPF
     MD5 check sum: 5f350582108a937bec95f27f5610ab08
     Pseudo is Norm-conserving, Zval =  1.0
     Generated in analytical, separable form
     Using radial grid of  929 points,  0 beta functions with: 

     atomic species   valence    mass     pseudopotential
        Si             4.00    28.08000     Si( 1.00)
        H              1.00     1.00784     H ( 1.00)

     No symmetry found


                                    s                        frac. trans.

      isym =  1     identity                                     

 cryst.   s( 1) = (     1          0          0      )
                  (     0          1          0      )
                  (     0          0          1      )

 cart.    s( 1) = (  1.0000000  0.0000000  0.0000000 )
                  (  0.0000000  1.0000000  0.0000000 )
                  (  0.0000000  0.0000000  1.0000000 )


   Cartesian axes

     site n.     atom                  positions (alat units)
         1           Si  tau(   1) = (   0.0805496   0.0841823   0.0845128  )
         2           Si  tau(   2) = (   0.1637790   0.1680720   0.0017935  )
         3           Si  tau(   3) = (   0.2477270   0.2506800   0.0850256  )
         4           Si  tau(   4) = (   0.1644340   0.0013112   0.1677960  )
         5           Si  tau(   5) = (   0.2472180   0.0859500   0.2502900  )
         6           Si  tau(   6) = (   0.9984940   0.1702600   0.1661610  )
         7           Si  tau(   7) = (   0.0816748   0.2517740   0.2512570  )
         8           Si  tau(   8) = (   0.0002848   0.0027075   0.3353850  )
         9           Si  tau(   9) = (   0.0839983   0.0845781   0.4194500  )
        10           Si  tau(  10) = (   0.1652530   0.1688680   0.3350030  )
        11           Si  tau(  11) = (   0.2491680   0.2523690   0.4175660  )
        12           Si  tau(  12) = (   0.1661000   0.0018196   0.5041890  )
        13           Si  tau(  13) = (   0.2446030   0.0883617   0.5891540  )
        14           Si  tau(  14) = (   0.9987620   0.1679840   0.5003200  )
        15           Si  tau(  15) = (   0.0810704   0.2535120   0.5814590  )
        16           Si  tau(  16) = (   0.9950960   0.0022429   0.6679410  )
        17           Si  tau(  17) = (   0.0760649   0.0818488   0.7561010  )
        18           Si  tau(  18) = (   0.1551040   0.1761270   0.6786210  )
        19           Si  tau(  19) = (   0.2522870   0.2533360   0.7531280  )
        20           Si  tau(  20) = (   0.1643120   0.0008124   0.8356060  )
        21           Si  tau(  21) = (   0.2468710   0.0863793   0.9174910  )
        22           Si  tau(  22) = (   0.9920830   0.1651080   0.8400860  )
        23           Si  tau(  23) = (   0.0814999   0.2497560   0.9164010  )
        24           Si  tau(  24) = (   0.0004910   0.3349630   0.9996300  )
        25           Si  tau(  25) = (   0.0823055   0.4177070   0.0848999  )
        26           Si  tau(  26) = (   0.1653260   0.5008800   0.0019974  )
        27           Si  tau(  27) = (   0.2485040   0.5827530   0.0862814  )
        28           Si  tau(  28) = (   0.1655510   0.3347690   0.1684420  )
        29           Si  tau(  29) = (   0.2485220   0.4182110   0.2516220  )
        30           Si  tau(  30) = (   0.0002124   0.5028010   0.1674330  )
        31           Si  tau(  31) = (   0.0819970   0.5857180   0.2515350  )
        32           Si  tau(  32) = (   0.9988490   0.3352730   0.3347040  )
        33           Si  tau(  33) = (   0.0820682   0.4186080   0.4181550  )
        34           Si  tau(  34) = (   0.1650280   0.5016860   0.3344650  )
        35           Si  tau(  35) = (   0.2493440   0.5841940   0.4169800  )
        36           Si  tau(  36) = (   0.1666670   0.3362610   0.5007170  )
        37           Si  tau(  37) = (   0.2497740   0.4188370   0.5854900  )
        38           Si  tau(  38) = (   0.9982240   0.5016730   0.5011420  )
        39           Si  tau(  39) = (   0.0809068   0.5843520   0.5852430  )
        40           Si  tau(  40) = (   0.9996450   0.3355030   0.6669790  )
        41           Si  tau(  41) = (   0.0840158   0.4177950   0.7508910  )
        42           Si  tau(  42) = (   0.1664210   0.5027530   0.6680190  )
        43           Si  tau(  43) = (   0.2469920   0.5858400   0.7545450  )
        44           Si  tau(  44) = (   0.1664510   0.3342890   0.8355470  )
        45           Si  tau(  45) = (   0.2493620   0.4169740   0.9205320  )
        46           Si  tau(  46) = (   0.9997260   0.5014220   0.8334200  )
        47           Si  tau(  47) = (   0.0825738   0.5842100   0.9178890  )
        48           Si  tau(  48) = (   0.9993570   0.6674350   0.0008780  )
        49           Si  tau(  49) = (   0.0838322   0.7493710   0.0842428  )
        50           Si  tau(  50) = (   0.1644930   0.8358360   0.0016690  )
        51           Si  tau(  51) = (   0.2484460   0.9190640   0.0842875  )
        52           Si  tau(  52) = (   0.1663770   0.6672630   0.1687460  )
        53           Si  tau(  53) = (   0.2484760   0.7521480   0.2508750  )
        54           Si  tau(  54) = (   0.9990890   0.8327400   0.1656400  )
        55           Si  tau(  55) = (   0.0809428   0.9175580   0.2505050  )
        56           Si  tau(  56) = (   0.9955930   0.6688330   0.3316190  )
        57           Si  tau(  57) = (   0.0792405   0.7504750   0.4159530  )
        58           Si  tau(  58) = (   0.1645720   0.8348940   0.3349290  )
        59           Si  tau(  59) = (   0.2486420   0.9200270   0.4169470  )
        60           Si  tau(  60) = (   0.1616300   0.6645230   0.4976200  )
        61           Si  tau(  61) = (   0.2291660   0.7701530   0.5656330  )
        62           Si  tau(  62) = (   0.9976250   0.8351660   0.5006490  )
        63           Si  tau(  63) = (   0.0793214   0.9194110   0.5857200  )
        64           Si  tau(  64) = (   0.9973980   0.6688420   0.6674430  )
        65           Si  tau(  65) = (   0.0797724   0.7515100   0.7523300  )
        66           Si  tau(  66) = (   0.1612360   0.8377690   0.6715440  )
        67           Si  tau(  67) = (   0.2479990   0.9194010   0.7513420  )
        68           Si  tau(  68) = (   0.1640770   0.6701520   0.8360020  )
        69           Si  tau(  69) = (   0.2482970   0.7530000   0.9184220  )
        70           Si  tau(  70) = (   0.9972530   0.8358910   0.8348380  )
        71           Si  tau(  71) = (   0.0798048   0.9192470   0.9188760  )
        72           Si  tau(  72) = (   0.3299950   0.0056540   0.0024762  )
        73           Si  tau(  73) = (   0.4152560   0.0864042   0.0853207  )
        74           Si  tau(  74) = (   0.5004380   0.1671700   0.0019028  )
        75           Si  tau(  75) = (   0.5879520   0.2498810   0.0806352  )
        76           Si  tau(  76) = (   0.4963000   0.9988460   0.1652590  )
        77           Si  tau(  77) = (   0.5710800   0.0802175   0.2568380  )
        78           Si  tau(  78) = (   0.3316500   0.1688240   0.1685450  )
        79           Si  tau(  79) = (   0.4153010   0.2513150   0.2518990  )
        80           Si  tau(  80) = (   0.3306890   0.0034024   0.3330390  )
        81           Si  tau(  81) = (   0.4108850   0.0843996   0.4212850  )
        82           Si  tau(  82) = (   0.4932370   0.1679930   0.3389240  )
        83           Si  tau(  83) = (   0.5822240   0.2504340   0.4163960  )
        84           Si  tau(  84) = (   0.4977380   0.0016875   0.5014020  )
        85           Si  tau(  85) = (   0.5810480   0.0862587   0.5834180  )
        86           Si  tau(  86) = (   0.3288700   0.1690810   0.5042940  )
        87           Si  tau(  87) = (   0.4160550   0.2521150   0.5839220  )
        88           Si  tau(  88) = (   0.3303720   0.0036909   0.6682980  )
        89           Si  tau(  89) = (   0.4156200   0.0852908   0.7511990  )
        90           Si  tau(  90) = (   0.4984970   0.1688470   0.6678410  )
        91           Si  tau(  91) = (   0.5822120   0.2512540   0.7517230  )
        92           Si  tau(  92) = (   0.4993580   0.0028811   0.8345860  )
        93           Si  tau(  93) = (   0.5840690   0.0852143   0.9181990  )
        94           Si  tau(  94) = (   0.3332950   0.1679670   0.8355560  )
        95           Si  tau(  95) = (   0.4166200   0.2509210   0.9190180  )
        96           Si  tau(  96) = (   0.3323840   0.3325740   0.0026183  )
        97           Si  tau(  97) = (   0.4169800   0.4130010   0.0868371  )
        98           Si  tau(  98) = (   0.4987800   0.4980370   0.0048310  )
        99           Si  tau(  99) = (   0.5808700   0.5822710   0.0872043  )
       100           Si  tau( 100) = (   0.5033390   0.3302390   0.1687880  )
       101           Si  tau( 101) = (   0.5826170   0.4175210   0.2510020  )
       102           Si  tau( 102) = (   0.3335090   0.4992140   0.1680470  )
       103           Si  tau( 103) = (   0.4152970   0.5842250   0.2506030  )
       104           Si  tau( 104) = (   0.3327490   0.3359560   0.3348290  )
       105           Si  tau( 105) = (   0.4161160   0.4188290   0.4186850  )
       106           Si  tau( 106) = (   0.4989040   0.5011370   0.3341460  )
       107           Si  tau( 107) = (   0.5824060   0.5838220   0.4178100  )
       108           Si  tau( 108) = (   0.5002570   0.3345860   0.5003730  )
       109           Si  tau( 109) = (   0.5836290   0.4167320   0.5847140  )
       110           Si  tau( 110) = (   0.3324450   0.5024490   0.5019770  )
       111           Si  tau( 111) = (   0.4183670   0.5856390   0.5830510  )
       112           Si  tau( 112) = (   0.3338270   0.3355490   0.6678000  )
       113           Si  tau( 113) = (   0.4159530   0.4193110   0.7520280  )
       114           Si  tau( 114) = (   0.4992350   0.5009430   0.6672500  )
       115           Si  tau( 115) = (   0.4986430   0.3343740   0.8346380  )
       116           Si  tau( 116) = (   0.5802950   0.4206580   0.9155870  )
       117           Si  tau( 117) = (   0.3313300   0.5011540   0.8354690  )
       118           Si  tau( 118) = (   0.4100070   0.5793880   0.9271760  )
       119           Si  tau( 119) = (   0.3285520   0.6687060   0.0037444  )
       120           Si  tau( 120) = (   0.4149110   0.7508690   0.0835021  )
       121           Si  tau( 121) = (   0.4937750   0.8330670   0.9954370  )
       122           Si  tau( 122) = (   0.5779210   0.9132350   0.0821015  )
       123           Si  tau( 123) = (   0.4981180   0.6681210   0.1677240  )
       124           Si  tau( 124) = (   0.5811390   0.7501670   0.2521250  )
       125           Si  tau( 125) = (   0.3317250   0.8348330   0.1669460  )
       126           Si  tau( 126) = (   0.4137050   0.9179970   0.2510760  )
       127           Si  tau( 127) = (   0.3317580   0.6680360   0.3332340  )
       128           Si  tau( 128) = (   0.4158710   0.7508120   0.4162480  )
       129           Si  tau( 129) = (   0.4981800   0.8351360   0.3338630  )
       130           Si  tau( 130) = (   0.5812330   0.9186560   0.4174260  )
       131           Si  tau( 131) = (   0.5000500   0.6693100   0.4998320  )
       132           Si  tau( 132) = (   0.5814470   0.7525940   0.5846000  )
       133           Si  tau( 133) = (   0.3351020   0.8377240   0.4975490  )
       134           Si  tau( 134) = (   0.4137260   0.9198770   0.5848970  )
       135           Si  tau( 135) = (   0.3610330   0.6538640   0.6971190  )
       136           Si  tau( 136) = (   0.4322760   0.7632290   0.7690810  )
       137           Si  tau( 137) = (   0.4994900   0.8391480   0.6669430  )
       138           Si  tau( 138) = (   0.5832710   0.9229440   0.7478510  )
       139           Si  tau( 139) = (   0.5910360   0.5793710   0.7454010  )
       140           Si  tau( 140) = (   0.5412060   0.7590650   0.8783080  )
       141           Si  tau( 141) = (   0.3307660   0.8394330   0.8368940  )
       142           Si  tau( 142) = (   0.4126300   0.9237480   0.9195650  )
       143           Si  tau( 143) = (   0.6602670   0.9905360   0.9939030  )
       144           Si  tau( 144) = (   0.8501270   0.9823880   0.1850350  )
       145           Si  tau( 145) = (   0.8180930   0.1761870   0.0145357  )
       146           Si  tau( 146) = (   0.9157580   0.2557330   0.0841495  )
       147           Si  tau( 147) = (   0.9160650   0.9133160   0.0792598  )
       148           Si  tau( 148) = (   0.9182620   0.0879629   0.2527060  )
       149           Si  tau( 149) = (   0.7070600   0.1815350   0.1296690  )
       150           Si  tau( 150) = (   0.7544950   0.2514690   0.2472890  )
       151           Si  tau( 151) = (   0.6643560   0.0025504   0.3333120  )
       152           Si  tau( 152) = (   0.7480830   0.0845135   0.4171280  )
       153           Si  tau( 153) = (   0.8319340   0.1678670   0.3346860  )
       154           Si  tau( 154) = (   0.9153870   0.2515490   0.4175440  )
       155           Si  tau( 155) = (   0.8316210   0.0015069   0.5005730  )
       156           Si  tau( 156) = (   0.9141490   0.0859588   0.5837210  )
       157           Si  tau( 157) = (   0.6651590   0.1680560   0.5003320  )
       158           Si  tau( 158) = (   0.7487170   0.2508100   0.5836690  )
       159           Si  tau( 159) = (   0.6663180   0.0052865   0.6659030  )
       160           Si  tau( 160) = (   0.7488010   0.0862318   0.7511790  )
       161           Si  tau( 161) = (   0.8321030   0.1689800   0.6677840  )
       162           Si  tau( 162) = (   0.9177750   0.2504180   0.7503030  )
       163           Si  tau( 163) = (   0.8283460   0.0015308   0.8363300  )
       164           Si  tau( 164) = (   0.9024980   0.0878830   0.9270980  )
       165           Si  tau( 165) = (   0.6665690   0.1693950   0.8352530  )
       166           Si  tau( 166) = (   0.7487130   0.2556160   0.9168950  )
       167           Si  tau( 167) = (   0.6638380   0.3395160   0.9976040  )
       168           Si  tau( 168) = (   0.7491580   0.4183520   0.0840165  )
       169           Si  tau( 169) = (   0.8341160   0.5002030   0.0012439  )
       170           Si  tau( 170) = (   0.9159380   0.5848650   0.0843045  )
       171           Si  tau( 171) = (   0.8361170   0.3403510   0.1695190  )
       172           Si  tau( 172) = (   0.9178970   0.4222670   0.2529580  )
       173           Si  tau( 173) = (   0.6663850   0.5005590   0.1687860  )
       174           Si  tau( 174) = (   0.7487990   0.5847560   0.2516680  )
       175           Si  tau( 175) = (   0.6655560   0.3312330   0.3303640  )
       176           Si  tau( 176) = (   0.7486750   0.4149450   0.4152570  )
       177           Si  tau( 177) = (   0.8317470   0.5021430   0.3356190  )
       178           Si  tau( 178) = (   0.9154140   0.5855930   0.4177360  )
       179           Si  tau( 179) = (   0.8320230   0.3344200   0.5010170  )
       180           Si  tau( 180) = (   0.9148190   0.4183560   0.5842270  )
       181           Si  tau( 181) = (   0.6659720   0.4986670   0.4990480  )
       182           Si  tau( 182) = (   0.7496320   0.5826260   0.5813510  )
       183           Si  tau( 183) = (   0.6660600   0.3331240   0.6678220  )
       184           Si  tau( 184) = (   0.7505700   0.4160040   0.7499100  )
       185           Si  tau( 185) = (   0.8319930   0.5014990   0.6672970  )
       186           Si  tau( 186) = (   0.9152530   0.5845520   0.7505340  )
       187           Si  tau( 187) = (   0.8349300   0.3343480   0.8330530  )
       188           Si  tau( 188) = (   0.9170500   0.4178960   0.9168590  )
       189           Si  tau( 189) = (   0.6690280   0.4987170   0.8342820  )
       190           Si  tau( 190) = (   0.7518360   0.5822000   0.9166120  )
       191           Si  tau( 191) = (   0.6671640   0.6590240   0.0027395  )
       192           Si  tau( 192) = (   0.7456110   0.7496080   0.0821081  )
       193           Si  tau( 193) = (   0.8290670   0.8311980   0.9979380  )
       194           Si  tau( 194) = (   0.9949470   0.0037268   0.0005058  )
       195           Si  tau( 195) = (   0.8303550   0.6671470   0.1661280  )
       196           Si  tau( 196) = (   0.9121520   0.7522780   0.2486630  )
       197           Si  tau( 197) = (   0.6617030   0.8316490   0.1654460  )
       198           Si  tau( 198) = (   0.7428670   0.9148000   0.2506890  )
       199           Si  tau( 199) = (   0.6653290   0.6675800   0.3350930  )
       200           Si  tau( 200) = (   0.7477020   0.7506740   0.4193840  )
       201           Si  tau( 201) = (   0.8290050   0.8341300   0.3344610  )
       202           Si  tau( 202) = (   0.9142640   0.9186160   0.4162120  )
       203           Si  tau( 203) = (   0.8326110   0.6683400   0.5013550  )
       204           Si  tau( 204) = (   0.9139430   0.7528980   0.5851160  )
       205           Si  tau( 205) = (   0.6646930   0.8356900   0.5013700  )
       206           Si  tau( 206) = (   0.7481960   0.9188970   0.5846120  )
       207           Si  tau( 207) = (   0.6674720   0.6675530   0.6629190  )
       208           Si  tau( 208) = (   0.7470760   0.7489720   0.7497880  )
       209           Si  tau( 209) = (   0.8302150   0.8354560   0.6692730  )
       210           Si  tau( 210) = (   0.9131100   0.9194960   0.7525720  )
       211           Si  tau( 211) = (   0.8321340   0.6678150   0.8337160  )
       212           Si  tau( 212) = (   0.9159750   0.7501350   0.9171670  )
       213           Si  tau( 213) = (   0.6581680   0.8307660   0.8277800  )
       214           Si  tau( 214) = (   0.7450170   0.9100130   0.9114240  )
       215           H   tau( 215) = (   0.6140390   0.1426130   0.1999570  )
       216           H   tau( 216) = (   0.4072870   0.5879490   0.7437210  )
       217           H   tau( 217) = (   0.9043580   0.9287990   0.2396770  )
       218           H   tau( 218) = (   0.4744520   0.6348370   0.8868830  )
       219           H   tau( 219) = (   0.7075480   0.0884151   0.1422810  )
       220           H   tau( 220) = (   0.5508320   0.6351890   0.8095870  )
       221           H   tau( 221) = (   0.7234100   0.0188183   0.0548303  )
       222           H   tau( 222) = (   0.1748720   0.8239930   0.5119160  )
       223           H   tau( 223) = (   0.6015410   0.6976110   0.9373550  )
       224           H   tau( 224) = (   0.0986731   0.2337230   0.7355200  )

   Crystallographic axes

     site n.     atom                  positions (cryst. coord.)
         1           Si  tau(   1) = (  0.0805496  0.0841823  0.0845128  )
         2           Si  tau(   2) = (  0.1637790  0.1680720  0.0017935  )
         3           Si  tau(   3) = (  0.2477270  0.2506800  0.0850256  )
         4           Si  tau(   4) = (  0.1644340  0.0013112  0.1677960  )
         5           Si  tau(   5) = (  0.2472180  0.0859500  0.2502900  )
         6           Si  tau(   6) = (  0.9984940  0.1702600  0.1661610  )
         7           Si  tau(   7) = (  0.0816748  0.2517740  0.2512570  )
         8           Si  tau(   8) = (  0.0002848  0.0027075  0.3353850  )
         9           Si  tau(   9) = (  0.0839983  0.0845781  0.4194500  )
        10           Si  tau(  10) = (  0.1652530  0.1688680  0.3350030  )
        11           Si  tau(  11) = (  0.2491680  0.2523690  0.4175660  )
        12           Si  tau(  12) = (  0.1661000  0.0018196  0.5041890  )
        13           Si  tau(  13) = (  0.2446030  0.0883617  0.5891540  )
        14           Si  tau(  14) = (  0.9987620  0.1679840  0.5003200  )
        15           Si  tau(  15) = (  0.0810704  0.2535120  0.5814590  )
        16           Si  tau(  16) = (  0.9950960  0.0022429  0.6679410  )
        17           Si  tau(  17) = (  0.0760649  0.0818488  0.7561010  )
        18           Si  tau(  18) = (  0.1551040  0.1761270  0.6786210  )
        19           Si  tau(  19) = (  0.2522870  0.2533360  0.7531280  )
        20           Si  tau(  20) = (  0.1643120  0.0008124  0.8356060  )
        21           Si  tau(  21) = (  0.2468710  0.0863793  0.9174910  )
        22           Si  tau(  22) = (  0.9920830  0.1651080  0.8400860  )
        23           Si  tau(  23) = (  0.0814999  0.2497560  0.9164010  )
        24           Si  tau(  24) = (  0.0004910  0.3349630  0.9996300  )
        25           Si  tau(  25) = (  0.0823055  0.4177070  0.0848999  )
        26           Si  tau(  26) = (  0.1653260  0.5008800  0.0019974  )
        27           Si  tau(  27) = (  0.2485040  0.5827530  0.0862814  )
        28           Si  tau(  28) = (  0.1655510  0.3347690  0.1684420  )
        29           Si  tau(  29) = (  0.2485220  0.4182110  0.2516220  )
        30           Si  tau(  30) = (  0.0002124  0.5028010  0.1674330  )
        31           Si  tau(  31) = (  0.0819970  0.5857180  0.2515350  )
        32           Si  tau(  32) = (  0.9988490  0.3352730  0.3347040  )
        33           Si  tau(  33) = (  0.0820682  0.4186080  0.4181550  )
        34           Si  tau(  34) = (  0.1650280  0.5016860  0.3344650  )
        35           Si  tau(  35) = (  0.2493440  0.5841940  0.4169800  )
        36           Si  tau(  36) = (  0.1666670  0.3362610  0.5007170  )
        37           Si  tau(  37) = (  0.2497740  0.4188370  0.5854900  )
        38           Si  tau(  38) = (  0.9982240  0.5016730  0.5011420  )
        39           Si  tau(  39) = (  0.0809068  0.5843520  0.5852430  )
        40           Si  tau(  40) = (  0.9996450  0.3355030  0.6669790  )
        41           Si  tau(  41) = (  0.0840158  0.4177950  0.7508910  )
        42           Si  tau(  42) = (  0.1664210  0.5027530  0.6680190  )
        43           Si  tau(  43) = (  0.2469920  0.5858400  0.7545450  )
        44           Si  tau(  44) = (  0.1664510  0.3342890  0.8355470  )
        45           Si  tau(  45) = (  0.2493620  0.4169740  0.9205320  )
        46           Si  tau(  46) = (  0.9997260  0.5014220  0.8334200  )
        47           Si  tau(  47) = (  0.0825738  0.5842100  0.9178890  )
        48           Si  tau(  48) = (  0.9993570  0.6674350  0.0008780  )
        49           Si  tau(  49) = (  0.0838322  0.7493710  0.0842428  )
        50           Si  tau(  50) = (  0.1644930  0.8358360  0.0016690  )
        51           Si  tau(  51) = (  0.2484460  0.9190640  0.0842875  )
        52           Si  tau(  52) = (  0.1663770  0.6672630  0.1687460  )
        53           Si  tau(  53) = (  0.2484760  0.7521480  0.2508750  )
        54           Si  tau(  54) = (  0.9990890  0.8327400  0.1656400  )
        55           Si  tau(  55) = (  0.0809428  0.9175580  0.2505050  )
        56           Si  tau(  56) = (  0.9955930  0.6688330  0.3316190  )
        57           Si  tau(  57) = (  0.0792405  0.7504750  0.4159530  )
        58           Si  tau(  58) = (  0.1645720  0.8348940  0.3349290  )
        59           Si  tau(  59) = (  0.2486420  0.9200270  0.4169470  )
        60           Si  tau(  60) = (  0.1616300  0.6645230  0.4976200  )
        61           Si  tau(  61) = (  0.2291660  0.7701530  0.5656330  )
        62           Si  tau(  62) = (  0.9976250  0.8351660  0.5006490  )
        63           Si  tau(  63) = (  0.0793214  0.9194110  0.5857200  )
        64           Si  tau(  64) = (  0.9973980  0.6688420  0.6674430  )
        65           Si  tau(  65) = (  0.0797724  0.7515100  0.7523300  )
        66           Si  tau(  66) = (  0.1612360  0.8377690  0.6715440  )
        67           Si  tau(  67) = (  0.2479990  0.9194010  0.7513420  )
        68           Si  tau(  68) = (  0.1640770  0.6701520  0.8360020  )
        69           Si  tau(  69) = (  0.2482970  0.7530000  0.9184220  )
        70           Si  tau(  70) = (  0.9972530  0.8358910  0.8348380  )
        71           Si  tau(  71) = (  0.0798048  0.9192470  0.9188760  )
        72           Si  tau(  72) = (  0.3299950  0.0056540  0.0024762  )
        73           Si  tau(  73) = (  0.4152560  0.0864042  0.0853207  )
        74           Si  tau(  74) = (  0.5004380  0.1671700  0.0019028  )
        75           Si  tau(  75) = (  0.5879520  0.2498810  0.0806352  )
        76           Si  tau(  76) = (  0.4963000  0.9988460  0.1652590  )
        77           Si  tau(  77) = (  0.5710800  0.0802175  0.2568380  )
        78           Si  tau(  78) = (  0.3316500  0.1688240  0.1685450  )
        79           Si  tau(  79) = (  0.4153010  0.2513150  0.2518990  )
        80           Si  tau(  80) = (  0.3306890  0.0034024  0.3330390  )
        81           Si  tau(  81) = (  0.4108850  0.0843996  0.4212850  )
        82           Si  tau(  82) = (  0.4932370  0.1679930  0.3389240  )
        83           Si  tau(  83) = (  0.5822240  0.2504340  0.4163960  )
        84           Si  tau(  84) = (  0.4977380  0.0016875  0.5014020  )
        85           Si  tau(  85) = (  0.5810480  0.0862587  0.5834180  )
        86           Si  tau(  86) = (  0.3288700  0.1690810  0.5042940  )
        87           Si  tau(  87) = (  0.4160550  0.2521150  0.5839220  )
        88           Si  tau(  88) = (  0.3303720  0.0036909  0.6682980  )
        89           Si  tau(  89) = (  0.4156200  0.0852908  0.7511990  )
        90           Si  tau(  90) = (  0.4984970  0.1688470  0.6678410  )
        91           Si  tau(  91) = (  0.5822120  0.2512540  0.7517230  )
        92           Si  tau(  92) = (  0.4993580  0.0028811  0.8345860  )
        93           Si  tau(  93) = (  0.5840690  0.0852143  0.9181990  )
        94           Si  tau(  94) = (  0.3332950  0.1679670  0.8355560  )
        95           Si  tau(  95) = (  0.4166200  0.2509210  0.9190180  )
        96           Si  tau(  96) = (  0.3323840  0.3325740  0.0026183  )
        97           Si  tau(  97) = (  0.4169800  0.4130010  0.0868371  )
        98           Si  tau(  98) = (  0.4987800  0.4980370  0.0048310  )
        99           Si  tau(  99) = (  0.5808700  0.5822710  0.0872043  )
       100           Si  tau( 100) = (  0.5033390  0.3302390  0.1687880  )
       101           Si  tau( 101) = (  0.5826170  0.4175210  0.2510020  )
       102           Si  tau( 102) = (  0.3335090  0.4992140  0.1680470  )
       103           Si  tau( 103) = (  0.4152970  0.5842250  0.2506030  )
       104           Si  tau( 104) = (  0.3327490  0.3359560  0.3348290  )
       105           Si  tau( 105) = (  0.4161160  0.4188290  0.4186850  )
       106           Si  tau( 106) = (  0.4989040  0.5011370  0.3341460  )
       107           Si  tau( 107) = (  0.5824060  0.5838220  0.4178100  )
       108           Si  tau( 108) = (  0.5002570  0.3345860  0.5003730  )
       109           Si  tau( 109) = (  0.5836290  0.4167320  0.5847140  )
       110           Si  tau( 110) = (  0.3324450  0.5024490  0.5019770  )
       111           Si  tau( 111) = (  0.4183670  0.5856390  0.5830510  )
       112           Si  tau( 112) = (  0.3338270  0.3355490  0.6678000  )
       113           Si  tau( 113) = (  0.4159530  0.4193110  0.7520280  )
       114           Si  tau( 114) = (  0.4992350  0.5009430  0.6672500  )
       115           Si  tau( 115) = (  0.4986430  0.3343740  0.8346380  )
       116           Si  tau( 116) = (  0.5802950  0.4206580  0.9155870  )
       117           Si  tau( 117) = (  0.3313300  0.5011540  0.8354690  )
       118           Si  tau( 118) = (  0.4100070  0.5793880  0.9271760  )
       119           Si  tau( 119) = (  0.3285520  0.6687060  0.0037444  )
       120           Si  tau( 120) = (  0.4149110  0.7508690  0.0835021  )
       121           Si  tau( 121) = (  0.4937750  0.8330670  0.9954370  )
       122           Si  tau( 122) = (  0.5779210  0.9132350  0.0821015  )
       123           Si  tau( 123) = (  0.4981180  0.6681210  0.1677240  )
       124           Si  tau( 124) = (  0.5811390  0.7501670  0.2521250  )
       125           Si  tau( 125) = (  0.3317250  0.8348330  0.1669460  )
       126           Si  tau( 126) = (  0.4137050  0.9179970  0.2510760  )
       127           Si  tau( 127) = (  0.3317580  0.6680360  0.3332340  )
       128           Si  tau( 128) = (  0.4158710  0.7508120  0.4162480  )
       129           Si  tau( 129) = (  0.4981800  0.8351360  0.3338630  )
       130           Si  tau( 130) = (  0.5812330  0.9186560  0.4174260  )
       131           Si  tau( 131) = (  0.5000500  0.6693100  0.4998320  )
       132           Si  tau( 132) = (  0.5814470  0.7525940  0.5846000  )
       133           Si  tau( 133) = (  0.3351020  0.8377240  0.4975490  )
       134           Si  tau( 134) = (  0.4137260  0.9198770  0.5848970  )
       135           Si  tau( 135) = (  0.3610330  0.6538640  0.6971190  )
       136           Si  tau( 136) = (  0.4322760  0.7632290  0.7690810  )
       137           Si  tau( 137) = (  0.4994900  0.8391480  0.6669430  )
       138           Si  tau( 138) = (  0.5832710  0.9229440  0.7478510  )
       139           Si  tau( 139) = (  0.5910360  0.5793710  0.7454010  )
       140           Si  tau( 140) = (  0.5412060  0.7590650  0.8783080  )
       141           Si  tau( 141) = (  0.3307660  0.8394330  0.8368940  )
       142           Si  tau( 142) = (  0.4126300  0.9237480  0.9195650  )
       143           Si  tau( 143) = (  0.6602670  0.9905360  0.9939030  )
       144           Si  tau( 144) = (  0.8501270  0.9823880  0.1850350  )
       145           Si  tau( 145) = (  0.8180930  0.1761870  0.0145357  )
       146           Si  tau( 146) = (  0.9157580  0.2557330  0.0841495  )
       147           Si  tau( 147) = (  0.9160650  0.9133160  0.0792598  )
       148           Si  tau( 148) = (  0.9182620  0.0879629  0.2527060  )
       149           Si  tau( 149) = (  0.7070600  0.1815350  0.1296690  )
       150           Si  tau( 150) = (  0.7544950  0.2514690  0.2472890  )
       151           Si  tau( 151) = (  0.6643560  0.0025504  0.3333120  )
       152           Si  tau( 152) = (  0.7480830  0.0845135  0.4171280  )
       153           Si  tau( 153) = (  0.8319340  0.1678670  0.3346860  )
       154           Si  tau( 154) = (  0.9153870  0.2515490  0.4175440  )
       155           Si  tau( 155) = (  0.8316210  0.0015069  0.5005730  )
       156           Si  tau( 156) = (  0.9141490  0.0859588  0.5837210  )
       157           Si  tau( 157) = (  0.6651590  0.1680560  0.5003320  )
       158           Si  tau( 158) = (  0.7487170  0.2508100  0.5836690  )
       159           Si  tau( 159) = (  0.6663180  0.0052865  0.6659030  )
       160           Si  tau( 160) = (  0.7488010  0.0862318  0.7511790  )
       161           Si  tau( 161) = (  0.8321030  0.1689800  0.6677840  )
       162           Si  tau( 162) = (  0.9177750  0.2504180  0.7503030  )
       163           Si  tau( 163) = (  0.8283460  0.0015308  0.8363300  )
       164           Si  tau( 164) = (  0.9024980  0.0878830  0.9270980  )
       165           Si  tau( 165) = (  0.6665690  0.1693950  0.8352530  )
       166           Si  tau( 166) = (  0.7487130  0.2556160  0.9168950  )
       167           Si  tau( 167) = (  0.6638380  0.3395160  0.9976040  )
       168           Si  tau( 168) = (  0.7491580  0.4183520  0.0840165  )
       169           Si  tau( 169) = (  0.8341160  0.5002030  0.0012439  )
       170           Si  tau( 170) = (  0.9159380  0.5848650  0.0843045  )
       171           Si  tau( 171) = (  0.8361170  0.3403510  0.1695190  )
       172           Si  tau( 172) = (  0.9178970  0.4222670  0.2529580  )
       173           Si  tau( 173) = (  0.6663850  0.5005590  0.1687860  )
       174           Si  tau( 174) = (  0.7487990  0.5847560  0.2516680  )
       175           Si  tau( 175) = (  0.6655560  0.3312330  0.3303640  )
       176           Si  tau( 176) = (  0.7486750  0.4149450  0.4152570  )
       177           Si  tau( 177) = (  0.8317470  0.5021430  0.3356190  )
       178           Si  tau( 178) = (  0.9154140  0.5855930  0.4177360  )
       179           Si  tau( 179) = (  0.8320230  0.3344200  0.5010170  )
       180           Si  tau( 180) = (  0.9148190  0.4183560  0.5842270  )
       181           Si  tau( 181) = (  0.6659720  0.4986670  0.4990480  )
       182           Si  tau( 182) = (  0.7496320  0.5826260  0.5813510  )
       183           Si  tau( 183) = (  0.6660600  0.3331240  0.6678220  )
       184           Si  tau( 184) = (  0.7505700  0.4160040  0.7499100  )
       185           Si  tau( 185) = (  0.8319930  0.5014990  0.6672970  )
       186           Si  tau( 186) = (  0.9152530  0.5845520  0.7505340  )
       187           Si  tau( 187) = (  0.8349300  0.3343480  0.8330530  )
       188           Si  tau( 188) = (  0.9170500  0.4178960  0.9168590  )
       189           Si  tau( 189) = (  0.6690280  0.4987170  0.8342820  )
       190           Si  tau( 190) = (  0.7518360  0.5822000  0.9166120  )
       191           Si  tau( 191) = (  0.6671640  0.6590240  0.0027395  )
       192           Si  tau( 192) = (  0.7456110  0.7496080  0.0821081  )
       193           Si  tau( 193) = (  0.8290670  0.8311980  0.9979380  )
       194           Si  tau( 194) = (  0.9949470  0.0037268  0.0005058  )
       195           Si  tau( 195) = (  0.8303550  0.6671470  0.1661280  )
       196           Si  tau( 196) = (  0.9121520  0.7522780  0.2486630  )
       197           Si  tau( 197) = (  0.6617030  0.8316490  0.1654460  )
       198           Si  tau( 198) = (  0.7428670  0.9148000  0.2506890  )
       199           Si  tau( 199) = (  0.6653290  0.6675800  0.3350930  )
       200           Si  tau( 200) = (  0.7477020  0.7506740  0.4193840  )
       201           Si  tau( 201) = (  0.8290050  0.8341300  0.3344610  )
       202           Si  tau( 202) = (  0.9142640  0.9186160  0.4162120  )
       203           Si  tau( 203) = (  0.8326110  0.6683400  0.5013550  )
       204           Si  tau( 204) = (  0.9139430  0.7528980  0.5851160  )
       205           Si  tau( 205) = (  0.6646930  0.8356900  0.5013700  )
       206           Si  tau( 206) = (  0.7481960  0.9188970  0.5846120  )
       207           Si  tau( 207) = (  0.6674720  0.6675530  0.6629190  )
       208           Si  tau( 208) = (  0.7470760  0.7489720  0.7497880  )
       209           Si  tau( 209) = (  0.8302150  0.8354560  0.6692730  )
       210           Si  tau( 210) = (  0.9131100  0.9194960  0.7525720  )
       211           Si  tau( 211) = (  0.8321340  0.6678150  0.8337160  )
       212           Si  tau( 212) = (  0.9159750  0.7501350  0.9171670  )
       213           Si  tau( 213) = (  0.6581680  0.8307660  0.8277800  )
       214           Si  tau( 214) = (  0.7450170  0.9100130  0.9114240  )
       215           H   tau( 215) = (  0.6140390  0.1426130  0.1999570  )
       216           H   tau( 216) = (  0.4072870  0.5879490  0.7437210  )
       217           H   tau( 217) = (  0.9043580  0.9287990  0.2396770  )
       218           H   tau( 218) = (  0.4744520  0.6348370  0.8868830  )
       219           H   tau( 219) = (  0.7075480  0.0884151  0.1422810  )
       220           H   tau( 220) = (  0.5508320  0.6351890  0.8095870  )
       221           H   tau( 221) = (  0.7234100  0.0188183  0.0548303  )
       222           H   tau( 222) = (  0.1748720  0.8239930  0.5119160  )
       223           H   tau( 223) = (  0.6015410  0.6976110  0.9373550  )
       224           H   tau( 224) = (  0.0986731  0.2337230  0.7355200  )

     number of k points=     8  Marzari-Vanderbilt smearing, width (Ry)=  0.0500
                       cart. coord. in units 2pi/alat
        k(    1) = (   0.0000000   0.0000000   0.0000000), wk =   0.2500000
        k(    2) = (   0.0000000   0.0000000  -0.5000000), wk =   0.2500000
        k(    3) = (   0.0000000  -0.5000000  -0.5000000), wk =   0.2500000
        k(    4) = (  -0.5000000  -0.5000000  -0.5000000), wk =   0.2500000
        k(    5) = (  -0.5000000   0.0000000   0.0000000), wk =   0.2500000
        k(    6) = (   0.0000000  -0.5000000   0.0000000), wk =   0.2500000
        k(    7) = (  -0.5000000   0.0000000   0.5000000), wk =   0.2500000
        k(    8) = (  -0.5000000   0.5000000   0.0000000), wk =   0.2500000

                       cryst. coord.
        k(    1) = (   0.0000000   0.0000000   0.0000000), wk =   0.2500000
        k(    2) = (   0.0000000   0.0000000  -0.5000000), wk =   0.2500000
        k(    3) = (   0.0000000  -0.5000000  -0.5000000), wk =   0.2500000
        k(    4) = (  -0.5000000  -0.5000000  -0.5000000), wk =   0.2500000
        k(    5) = (  -0.5000000   0.0000000   0.0000000), wk =   0.2500000
        k(    6) = (   0.0000000  -0.5000000   0.0000000), wk =   0.2500000
        k(    7) = (  -0.5000000   0.0000000   0.5000000), wk =   0.2500000
        k(    8) = (  -0.5000000   0.5000000   0.0000000), wk =   0.2500000

     Dense  grid:  1078507 G-vectors     FFT dimensions: ( 128, 128, 128)

     Dynamical RAM for                 wfc:     133.72 MB

     Dynamical RAM for     wfc (w. buffer):    1203.49 MB

     Dynamical RAM for           str. fact:       4.11 MB

     Dynamical RAM for           local pot:       0.00 MB

     Dynamical RAM for          nlocal pot:     275.16 MB

     Dynamical RAM for                qrad:       1.75 MB

     Dynamical RAM for          rho,v,vnew:      12.17 MB

     Dynamical RAM for               rhoin:       4.06 MB

     Dynamical RAM for            rho*nmix:      32.91 MB

     Dynamical RAM for           G-vectors:       8.74 MB

     Dynamical RAM for          h,s,v(r/c):     198.05 MB

     Dynamical RAM for          <psi|beta>:       8.49 MB

     Dynamical RAM for                 psi:     534.89 MB

     Dynamical RAM for                hpsi:     534.89 MB

     Dynamical RAM for      wfcinit/wfcrot:     462.57 MB

     Estimated static dynamical RAM per process >       1.52 GB

     Estimated max dynamical RAM per process >       2.77 GB

     Estimated total dynamical RAM >      22.15 GB

     Initial potential from superposition of free atoms

     starting charge  865.88022, renormalised to  866.00000
     Starting wfc are  866 randomized atomic wfcs

     total cpu time spent up to now is      238.9 secs

     Self-consistent Calculation

     iteration #  1     ecut=    42.00 Ry     beta= 0.30
     Davidson diagonalization with overlap
     ethr =  1.00E-02,  avg # of iterations =  3.2

     Threshold (ethr) on eigenvalues was too large:
     Diagonalizing with lowered threshold

     Davidson diagonalization with overlap
     ethr =  7.88E-04,  avg # of iterations =  3.5

     total cpu time spent up to now is     1167.9 secs

     total energy              =   -1696.73389491 Ry
     Harris-Foulkes estimate   =   -1697.80214878 Ry
     estimated scf accuracy    <       6.68222470 Ry

     iteration #  2     ecut=    42.00 Ry     beta= 0.30
     Davidson diagonalization with overlap
     ethr =  7.72E-04,  avg # of iterations =  2.2

     total cpu time spent up to now is     1484.5 secs

     total energy              =   -1696.24095144 Ry
     Harris-Foulkes estimate   =   -1696.87005347 Ry
     estimated scf accuracy    <       2.76949421 Ry

     iteration #  3     ecut=    42.00 Ry     beta= 0.30
     Davidson diagonalization with overlap
     ethr =  3.20E-04,  avg # of iterations =  7.2

     total cpu time spent up to now is     2042.8 secs

     total energy              =   -1696.10589292 Ry
     Harris-Foulkes estimate   =   -1696.62146797 Ry
     estimated scf accuracy    <       2.43039006 Ry

     iteration #  4     ecut=    42.00 Ry     beta= 0.30
     Davidson diagonalization with overlap
     ethr =  2.81E-04,  avg # of iterations =  5.8

     total cpu time spent up to now is     2513.2 secs

     total energy              =   -1696.35771347 Ry
     Harris-Foulkes estimate   =   -1696.41928276 Ry
     estimated scf accuracy    <       0.32657535 Ry

     iteration #  5     ecut=    42.00 Ry     beta= 0.30
     Davidson diagonalization with overlap
     ethr =  3.77E-05,  avg # of iterations =  9.0

     total cpu time spent up to now is     3070.4 secs

     total energy              =   -1696.38161614 Ry
     Harris-Foulkes estimate   =   -1696.40823771 Ry
     estimated scf accuracy    <       0.13773760 Ry

     iteration #  6     ecut=    42.00 Ry     beta= 0.30
     Davidson diagonalization with overlap
     ethr =  1.59E-05,  avg # of iterations =  8.1

     total cpu time spent up to now is     3688.3 secs

     total energy              =   -1696.39377187 Ry
     Harris-Foulkes estimate   =   -1696.40117636 Ry
     estimated scf accuracy    <       0.04295719 Ry

     iteration #  7     ecut=    42.00 Ry     beta= 0.30
     Davidson diagonalization with overlap
     ethr =  4.96E-06,  avg # of iterations = 11.0

     total cpu time spent up to now is     4391.5 secs

     total energy              =   -1696.39750877 Ry
     Harris-Foulkes estimate   =   -1696.39925724 Ry
     estimated scf accuracy    <       0.01165402 Ry

     iteration #  8     ecut=    42.00 Ry     beta= 0.30
     Davidson diagonalization with overlap
     ethr =  1.35E-06,  avg # of iterations =  7.6

     total cpu time spent up to now is     4970.0 secs

     total energy              =   -1696.39822397 Ry
     Harris-Foulkes estimate   =   -1696.39884569 Ry
     estimated scf accuracy    <       0.00314029 Ry

     iteration #  9     ecut=    42.00 Ry     beta= 0.30
     Davidson diagonalization with overlap
     ethr =  3.63E-07,  avg # of iterations =  3.4

     total cpu time spent up to now is     5469.1 secs

     total energy              =   -1696.39853616 Ry
     Harris-Foulkes estimate   =   -1696.39882749 Ry
     estimated scf accuracy    <       0.00166082 Ry

     iteration # 10     ecut=    42.00 Ry     beta= 0.30
     Davidson diagonalization with overlap
     ethr =  1.92E-07,  avg # of iterations =  2.5

     total cpu time spent up to now is     5820.4 secs

     total energy              =   -1696.39869343 Ry
     Harris-Foulkes estimate   =   -1696.39872322 Ry
     estimated scf accuracy    <       0.00017232 Ry

     iteration # 11     ecut=    42.00 Ry     beta= 0.30
     Davidson diagonalization with overlap
     ethr =  1.99E-08,  avg # of iterations =  3.4

     total cpu time spent up to now is     6235.8 secs

     total energy              =   -1696.39871851 Ry
     Harris-Foulkes estimate   =   -1696.39872906 Ry
     estimated scf accuracy    <       0.00005907 Ry

     iteration # 12     ecut=    42.00 Ry     beta= 0.30
     Davidson diagonalization with overlap
     ethr =  6.82E-09,  avg # of iterations =  3.0

     total cpu time spent up to now is     6618.6 secs

     total energy              =   -1696.39872636 Ry
     Harris-Foulkes estimate   =   -1696.39872862 Ry
     estimated scf accuracy    <       0.00001790 Ry

     iteration # 13     ecut=    42.00 Ry     beta= 0.30
     Davidson diagonalization with overlap
     ethr =  2.07E-09,  avg # of iterations =  3.4

     total cpu time spent up to now is     6988.2 secs

     total energy              =   -1696.39872938 Ry
     Harris-Foulkes estimate   =   -1696.39872961 Ry
     estimated scf accuracy    <       0.00000714 Ry

     iteration # 14     ecut=    42.00 Ry     beta= 0.30
     Davidson diagonalization with overlap
     ethr =  8.25E-10,  avg # of iterations =  3.0

     total cpu time spent up to now is     7337.6 secs

     total energy              =   -1696.39873081 Ry
     Harris-Foulkes estimate   =   -1696.39873028 Ry
     estimated scf accuracy    <       0.00000129 Ry

     iteration # 15     ecut=    42.00 Ry     beta= 0.30
     Davidson diagonalization with overlap
     ethr =  1.49E-10,  avg # of iterations =  3.2

     total cpu time spent up to now is     7709.4 secs

     total energy              =   -1696.39873115 Ry
     Harris-Foulkes estimate   =   -1696.39873101 Ry
     estimated scf accuracy    <       0.00000076 Ry

     iteration # 16     ecut=    42.00 Ry     beta= 0.30
     Davidson diagonalization with overlap
     ethr =  8.76E-11,  avg # of iterations =  3.4

     total cpu time spent up to now is     8058.4 secs

     total energy              =   -1696.39873146 Ry
     Harris-Foulkes estimate   =   -1696.39873127 Ry
     estimated scf accuracy    <       0.00000043 Ry

     iteration # 17     ecut=    42.00 Ry     beta= 0.30
     Davidson diagonalization with overlap
     ethr =  4.92E-11,  avg # of iterations =  3.2

     total cpu time spent up to now is     8388.3 secs

     total energy              =   -1696.39873154 Ry
     Harris-Foulkes estimate   =   -1696.39873150 Ry
     estimated scf accuracy    <       0.00000006 Ry

     iteration # 18     ecut=    42.00 Ry     beta= 0.30
     Davidson diagonalization with overlap
     ethr =  7.30E-12,  avg # of iterations =  3.4

     total cpu time spent up to now is     8787.5 secs

     total energy              =   -1696.39873157 Ry
     Harris-Foulkes estimate   =   -1696.39873156 Ry
     estimated scf accuracy    <       0.00000003 Ry

     iteration # 19     ecut=    42.00 Ry     beta= 0.30
     Davidson diagonalization with overlap
     ethr =  3.87E-12,  avg # of iterations =  3.4

     total cpu time spent up to now is     9153.9 secs

     total energy              =   -1696.39873157 Ry
     Harris-Foulkes estimate   =   -1696.39873157 Ry
     estimated scf accuracy    <       0.00000001 Ry

     iteration # 20     ecut=    42.00 Ry     beta= 0.30
     Davidson diagonalization with overlap
     ethr =  1.53E-12,  avg # of iterations =  3.1

     total cpu time spent up to now is     9501.7 secs

     End of self-consistent calculation

          k = 0.0000 0.0000 0.0000 (134683 PWs)   bands (ev):

    -5.8505  -5.4239  -5.4129  -5.3806  -5.3562  -5.3441  -5.3285  -5.0398
    -5.0006  -4.9790  -4.9211  -4.9098  -4.8927  -4.8848  -4.8834  -4.8755
    -4.8726  -4.8568  -4.7929  -4.5472  -4.5356  -4.5002  -4.4717  -4.4649
    -4.4555  -4.4395  -4.4084  -4.0694  -3.9767  -3.9679  -3.9390  -3.9358
    -3.9276  -3.7691  -3.7227  -3.6918  -3.6479  -3.6279  -3.5844  -3.5816
    -3.5734  -3.5701  -3.5680  -3.5650  -3.5629  -3.5554  -3.5546  -3.5516
    -3.5498  -3.5434  -3.5386  -3.5317  -3.5281  -3.5244  -3.5191  -3.4839
    -3.4517  -3.4285  -3.4171  -3.4023  -3.3867  -3.3743  -3.3684  -3.3649
    -3.3621  -3.3604  -3.3561  -3.3531  -3.3477  -3.3456  -3.3406  -3.3401
    -3.3329  -3.3310  -3.3291  -3.3239  -3.3041  -3.2730  -3.1913  -3.1749
    -3.0182  -2.6498  -2.6171  -2.6120  -2.6063  -2.5893  -2.5814  -2.5700
    -2.5661  -2.5626  -2.5288  -2.4959  -2.4304  -1.8812  -1.7912  -1.7427
    -1.7280  -1.7066  -1.7041  -1.6757  -1.6649  -1.6301  -1.6248  -1.6204
    -1.6132  -1.6065  -1.6010  -1.5977  -1.5912  -1.5864  -1.5857  -1.5825
    -1.5798  -1.5754  -1.5710  -1.5700  -1.5613  -1.5557  -1.5522  -1.5378
    -1.4870  -1.4378  -1.2987  -1.0005  -0.8947  -0.8265  -0.7992  -0.7299
    -0.7007  -0.6742  -0.6664  -0.6561  -0.6515  -0.6467  -0.6299  -0.6205
    -0.6126  -0.5915  -0.5621  -0.5478  -0.5263  -0.5129  -0.5063  -0.4985
    -0.4922  -0.4892  -0.4869  -0.4833  -0.4758  -0.4713  -0.4654  -0.4532
    -0.4511  -0.4427  -0.3922  -0.3729  -0.3474  -0.1363  -0.1008   0.2502
     0.3074   0.3614   0.3731   0.3993   0.4103   0.4315   0.4373   0.4423
     0.4445   0.4501   0.4550   0.4565   0.4619   0.4630   0.4685   0.4729
     0.4760   0.4833   0.4917   0.4953   0.5050   0.5972   0.6394   0.6971
     0.7432   0.7663   0.7735   0.7900   0.8281   0.8645   0.9363   1.0236
     1.0548   1.0830   1.0907   1.1628   1.2921   1.4349   1.4516   1.5100
     1.5666   1.6681   1.6831   1.6982   1.7236   1.7287   1.7346   1.7600
     1.7636   1.9363   1.9720   2.0310   2.0843   2.1143   2.2074   2.2574
     2.2970   2.3306   2.3430   2.3485   2.3616   2.3815   2.3852   2.3890
     2.3926   2.4119   2.4172   2.4357   2.4403   2.4481   2.4570   2.4575
     2.4618   2.4658   2.4748   2.4763   2.4812   2.4838   2.4912   2.4966
     2.4994   2.5037   2.5129   2.5171   2.5186   2.5221   2.5282   2.5328
     2.5395   2.5410   2.5447   2.5498   2.5523   2.5565   2.5647   2.5693
     2.5717   2.5738   2.5901   2.5997   2.6050   2.6132   2.6356   2.6601
     2.6764   2.7067   2.7271   2.8145   2.8230   3.0583   3.1085   3.1354
     3.1901   3.2094   3.2195   3.2314   3.2429   3.2507   3.2614   3.2655
     3.2786   3.2885   3.2928   3.3010   3.3147   3.3181   3.3283   3.3296
     3.3402   3.3484   3.3558   3.3694   3.3787   3.3828   3.3885   3.4017
     3.4251   3.4400   3.4799   3.4842   3.5314   3.5730   3.5791   3.6020
     3.6069   3.6432   3.6526   3.6551   3.6625   3.6669   3.6765   3.6868
     3.6937   3.6991   3.7054   3.7074   3.7083   3.7101   3.7134   3.7205
     3.7287   3.7334   3.7480   3.7557   3.7663   3.7755   3.7775   3.7909
     3.7943   3.7975   3.8016   3.8054   3.8173   3.8217   3.8288   3.8370
     3.8449   3.8496   3.8559   3.8604   3.8736   3.8806   3.8904   3.8996
     3.9241   3.9426   3.9640   3.9762   3.9791   3.9930   3.9969   4.0112
     4.0191   4.0326   4.0360   4.0479   4.0569   4.0753   4.0895   4.0950
     4.1121   4.1174   4.1595   4.2039   4.2284   4.2653   4.2728   4.2875
     4.2958   4.3050   4.3075   4.3082   4.3214   4.3330   4.3401   4.3464
     4.3484   4.3657   4.3713   4.3760   4.3855   4.3881   4.3918   4.4057
     4.4241   4.4581   4.5043   4.5577   4.6654   4.7738   4.8444   4.8542
     4.8689   4.8769   4.8978   4.9063   4.9110   4.9226   4.9346   4.9705
     4.9993   5.0107   5.0237   5.0643   5.0706   5.0742   5.0863   5.0923
     5.1016   5.1134   5.1190   5.1272   5.1343   5.1368   5.1812   5.1843
     5.1892   5.3810   5.4411   5.4575   5.5002   5.5147   5.5256   5.5293
     5.5376   5.5443   5.5520   5.5796   5.5873   5.8726   5.9758   6.0731
     6.0861   6.2775   6.7095   6.8060   6.8444   6.8548   6.8634   6.8847
     6.8991   6.9006   6.9347   6.9936   7.0138   7.1541   7.3419   7.4320
     7.5871   7.6163   7.6425   7.6456   7.6810   7.6909   7.7074   7.7148
     7.7340   7.7379   7.7602   7.7717   7.7888   7.8085   7.8120   7.8146
     7.8239   7.8378   7.8478   7.8649   7.8720   7.8913   7.9090   7.9244
     7.9621   7.9845   8.0205   8.0347   8.0489   8.0661   8.0747   8.0864
     8.0903   8.1019   8.1058   8.1128   8.1241   8.1399   8.1456   8.1578
     8.1719   8.1798   8.1839   8.1917   8.1983   8.2105   8.2152   8.2385
     8.2599   8.2876   8.3116   8.3289   8.4018   8.4583   8.5262   8.6052
     8.6198   8.6809   8.6867   8.7063   8.7307   8.7509   8.7668   8.7920
     8.8031   8.8122   8.8204   8.8234   8.8315   8.8358   8.8422   8.8452

     occupation numbers 
     1.0000   1.0000   1.0000   1.0000   1.0000   1.0000   1.0000   1.0000
     1.0000   1.0000   1.0000   1.0000   1.0000   1.0000   1.0000   1.0000
     1.0000   1.0000   1.0000   1.0000   1.0000   1.0000   1.0000   1.0000
     1.0000   1.0000   1.0000   1.0000   1.0000   1.0000   1.0000   1.0000
     1.0000   1.0000   1.0000   1.0000   1.0000   1.0000   1.0000   1.0000
     1.0000   1.0000   1.0000   1.0000   1.0000   1.0000   1.0000   1.0000
     1.0000   1.0000   1.0000   1.0000   1.0000   1.0000   1.0000   1.0000
     1.0000   1.0000   1.0000   1.0000   1.0000   1.0000   1.0000   1.0000
     1.0000   1.0000   1.0000   1.0000   1.0000   1.0000   1.0000   1.0000
     1.0000   1.0000   1.0000   1.0000   1.0000   1.0000   1.0000   1.0000
     1.0000   1.0000   1.0000   1.0000   1.0000   1.0000   1.0000   1.0000
     1.0000   1.0000   1.0000   1.0000   1.0000   1.0000   1.0000   1.0000
     1.0000   1.0000   1.0000   1.0000   1.0000   1.0000   1.0000   1.0000
     1.0000   1.0000   1.0000   1.0000   1.0000   1.0000   1.0000   1.0000
     1.0000   1.0000   1.0000   1.0000   1.0000   1.0000   1.0000   1.0000
     1.0000   1.0000   1.0000   1.0000   1.0000   1.0000   1.0000   1.0000
     1.0000   1.0000   1.0000   1.0000   1.0000   1.0000   1.0000   1.0000
     1.0000   1.0000   1.0000   1.0000   1.0000   1.0000   1.0000   1.0000
     1.0000   1.0000   1.0000   1.0000   1.0000   1.0000   1.0000   1.0000
     1.0000   1.0000   1.0000   1.0000   1.0000   1.0000   1.0000   1.0000
     1.0000   1.0000   1.0000   1.0000   1.0000   1.0000   1.0000   1.0000
     1.0000   1.0000   1.0000   1.0000   1.0000   1.0000   1.0000   1.0000
     1.0000   1.0000   1.0000   1.0000   1.0000   1.0000   1.0000   1.0000
     1.0000   1.0000   1.0000   1.0000   1.0000   1.0000   1.0000   1.0000
     1.0000   1.0000   1.0000   1.0000   1.0000   1.0000   1.0000   1.0000
     1.0000   1.0000   1.0000   1.0000   1.0000   1.0000   1.0000   1.0000
     1.0000   1.0000   1.0000   1.0000   1.0000   1.0000   1.0000   1.0000
     1.0000   1.0000   1.0000   1.0000   1.0000   1.0000   1.0000   1.0000
     1.0000   1.0000   1.0000   1.0000   1.0000   1.0000   1.0000   1.0000
     1.0000   1.0000   1.0000   1.0000   1.0000   1.0000   1.0000   1.0000
     1.0000   1.0000   1.0000   1.0000   1.0000   1.0000   1.0000   1.0000
     1.0000   1.0000   1.0000   1.0000   1.0000   1.0000   1.0000   1.0000
     1.0000   1.0000   1.0000   1.0000   1.0000   1.0000   1.0000   1.0000
     1.0000   1.0000   1.0000   1.0000   1.0000   1.0000   1.0000   1.0000
     1.0000   1.0000   1.0000   1.0000   1.0000   1.0000   1.0000   1.0000
     1.0000   1.0000   1.0000   1.0000   1.0000   1.0000   1.0000   1.0000
     1.0000   1.0000   1.0000   1.0000   1.0000   1.0000   1.0000   1.0000
     1.0000   1.0000   1.0001   1.0001   1.0001   1.0001   1.0001   1.0002
     1.0002   1.0002   1.0002   1.0002   1.0003   1.0003   1.0003   1.0003
     1.0003   1.0003   1.0003   1.0004   1.0004   1.0004   1.0004   1.0004
     1.0004   1.0004   1.0005   1.0005   1.0005   1.0006   1.0006   1.0006
     1.0007   1.0007   1.0007   1.0007   1.0008   1.0008   1.0008   1.0009
     1.0009   1.0010   1.0010   1.0010   1.0011   1.0012   1.0013   1.0014
     1.0016   1.0018   1.0021   1.0022   1.0023   1.0025   1.0025   1.0027
     1.0029   1.0031   1.0032   1.0034   1.0036   1.0040   1.0044   1.0045
     1.0049   1.0051   1.0064   1.0081   1.0092   1.0110   1.0114   1.0123
     1.0127   1.0133   1.0135   1.0135   1.0144   1.0151   1.0156   1.0161
     1.0162   1.0175   1.0179   1.0183   1.0191   1.0193   1.0196   1.0207
     1.0224   1.0256   1.0305   1.0367   1.0508   1.0656   1.0742   1.0752
     1.0767   1.0774   1.0792   1.0799   1.0802   1.0810   1.0817   1.0831
     1.0833   1.0831   1.0828   1.0803   1.0798   1.0794   1.0781   1.0774
     1.0761   1.0744   1.0735   1.0721   1.0708   1.0703   1.0600   1.0591
     1.0577   0.9678   0.9249   0.9120   0.8761   0.8633   0.8535   0.8501
     0.8423   0.8361   0.8288   0.8020   0.7944   0.4860   0.3794   0.2897
     0.2787   0.1460   0.0198   0.0114   0.0091   0.0085   0.0081   0.0071
     0.0065   0.0064   0.0051   0.0035   0.0030   0.0011   0.0003   0.0001
     0.0000   0.0000   0.0000   0.0000   0.0000   0.0000   0.0000   0.0000
     0.0000   0.0000   0.0000   0.0000   0.0000   0.0000   0.0000   0.0000
     0.0000   0.0000   0.0000   0.0000   0.0000   0.0000   0.0000   0.0000
     0.0000   0.0000   0.0000   0.0000   0.0000   0.0000   0.0000   0.0000
     0.0000   0.0000   0.0000   0.0000   0.0000   0.0000   0.0000   0.0000
     0.0000   0.0000   0.0000   0.0000   0.0000   0.0000   0.0000   0.0000
     0.0000   0.0000   0.0000   0.0000   0.0000   0.0000   0.0000   0.0000
     0.0000   0.0000   0.0000   0.0000   0.0000   0.0000   0.0000   0.0000
     0.0000   0.0000   0.0000   0.0000   0.0000   0.0000   0.0000   0.0000

          k = 0.0000 0.0000-0.5000 (134800 PWs)   bands (ev):

    -5.7409  -5.7214  -5.3279  -5.2907  -5.2755  -5.2727  -5.2414  -5.2352
    -5.2339  -5.1951  -4.9193  -4.8527  -4.8298  -4.8039  -4.7891  -4.7795
    -4.7722  -4.7608  -4.7473  -4.6997  -4.4098  -4.3770  -4.3549  -4.3454
    -4.3335  -4.3241  -4.3116  -4.2736  -4.0873  -4.0302  -4.0152  -3.9893
    -3.9675  -3.9601  -3.9472  -3.9304  -3.9077  -3.9018  -3.8595  -3.8517
    -3.8413  -3.8195  -3.7842  -3.7710  -3.6072  -3.5654  -3.5638  -3.5409
    -3.5328  -3.5186  -3.5087  -3.4998  -3.4950  -3.4863  -3.4806  -3.4772
    -3.4669  -3.4343  -3.4010  -3.3835  -3.3149  -3.2893  -3.2754  -3.2694
    -3.2637  -3.2489  -3.2281  -3.2146  -3.1569  -3.1501  -3.1260  -3.1123
    -3.1060  -3.0748  -3.0596  -3.0138  -2.9331  -2.9024  -2.8441  -2.8164
    -2.8061  -2.7974  -2.7926  -2.7867  -2.7669  -2.6934  -2.6680  -2.6416
    -2.6293  -2.6256  -2.6227  -2.6010  -2.5360  -2.4723  -2.1004  -2.0895
    -2.0656  -2.0595  -2.0466  -2.0300  -2.0169  -1.9689  -1.7632  -1.7212
    -1.6834  -1.6780  -1.6596  -1.6522  -1.6314  -1.5972  -1.5574  -1.5562
    -1.5068  -1.4648  -1.2924  -1.2263  -1.1987  -1.1722  -1.1450  -1.1296
    -1.1207  -1.0503  -0.9705  -0.9284  -0.8714  -0.8172  -0.8054  -0.7655
    -0.7351  -0.7162  -0.7150  -0.7079  -0.7031  -0.6895  -0.6794  -0.6688
    -0.6232  -0.5790  -0.5571  -0.5501  -0.5369  -0.5264  -0.5197  -0.4755
    -0.4489  -0.4173  -0.3710  -0.3222  -0.2445  -0.2165  -0.1893  -0.1461
    -0.1140  -0.1090  -0.0992  -0.0957  -0.0774  -0.0558  -0.0174   0.0015
     0.0033   0.0225   0.0254   0.0324   0.0397   0.0503   0.0607   0.0676
     0.0734   0.0797   0.0841   0.0914   0.0971   0.1019   0.1075   0.1308
     0.1543   0.2583   0.3541   0.5771   0.8020   0.8615   0.8819   0.8975
     0.9055   0.9137   0.9927   1.0660   1.1842   1.2630   1.2990   1.3224
     1.3632   1.4027   1.4366   1.4562   1.4782   1.5385   1.5664   1.6115
     1.6369   1.6567   1.6842   1.6998   1.7283   1.7718   1.8113   1.8556
     1.8686   1.8803   1.8951   1.9048   1.9223   1.9410   1.9641   1.9802
     1.9925   2.0019   2.0157   2.0293   2.0914   2.1063   2.1397   2.1452
     2.1639   2.1831   2.2110   2.2257   2.2473   2.2536   2.2671   2.2769
     2.3127   2.3157   2.3503   2.3610   2.3637   2.3856   2.3985   2.4336
     2.5511   2.5782   2.6144   2.6330   2.6825   2.7174   2.7621   2.7947
     2.8241   2.8318   2.8438   2.8490   2.8570   2.8670   2.8805   2.8846
     2.8917   2.9030   2.9095   2.9173   2.9244   2.9309   2.9361   2.9406
     2.9437   2.9548   2.9621   2.9689   2.9788   2.9862   2.9965   3.0054
     3.0136   3.0199   3.0248   3.0435   3.0486   3.0528   3.0710   3.0863
     3.0940   3.1322   3.1824   3.2095   3.2271   3.2423   3.2498   3.2612
     3.2701   3.2854   3.2904   3.3060   3.3180   3.3253   3.3372   3.3474
     3.3544   3.3575   3.3680   3.3702   3.3785   3.3850   3.3874   3.4000
     3.4049   3.4177   3.4271   3.4459   3.4548   3.4721   3.4863   3.4962
     3.5221   3.5464   3.5638   3.5724   3.6139   3.6348   3.6627   3.6777
     3.6877   3.7061   3.7124   3.7334   3.7530   3.7744   3.8468   3.8684
     3.8888   3.8988   3.9306   3.9347   3.9498   3.9546   3.9642   3.9704
     3.9799   3.9844   3.9982   4.0028   4.0122   4.0215   4.0236   4.0376
     4.0452   4.0514   4.0668   4.0719   4.0835   4.0923   4.0983   4.1057
     4.1166   4.1401   4.1512   4.1632   4.1695   4.1797   4.2189   4.2433
     4.2515   4.2633   4.2879   4.3252   4.3426   4.3838   4.3925   4.4015
     4.4039   4.4126   4.4254   4.4305   4.4336   4.4442   4.4496   4.4572
     4.4646   4.4685   4.4747   4.4913   4.5010   4.5040   4.5140   4.5159
     4.5258   4.5354   4.5425   4.5545   4.5681   4.5898   4.6009   4.6184
     4.6556   4.6699   4.6869   4.6942   4.7169   4.7173   4.7357   4.7583
     4.7709   4.7862   4.8191   4.8356   4.8476   4.8552   4.8852   4.9417
     4.9495   5.0189   5.1947   5.3132   5.3308   5.3400   5.3586   5.3750
     5.3843   5.3870   5.3967   5.4053   5.4071   5.4213   5.4215   5.4304
     5.4336   5.4506   5.4718   5.5070   5.5882   5.6587   5.6712   5.7081
     5.9771   6.2716   6.7140   6.8291   7.0177   7.1643   7.2544   7.2895
     7.3396   7.3648   7.3944   7.4279   7.4483   7.4546   7.4729   7.4748
     7.4872   7.5069   7.5352   7.5436   7.5618   7.5650   7.6005   7.6067
     7.6913   7.7004   7.7140   7.7678   7.7829   7.8205   7.8235   7.8401
     7.8662   7.8754   7.8854   7.8943   7.9162   7.9234   7.9382   7.9754
     8.0159   8.0654   8.0890   8.1457   8.1723   8.2044   8.2162   8.2232
     8.2283   8.2391   8.2782   8.2874   8.3066   8.3148   8.3178   8.3273
     8.3304   8.3455   8.3543   8.3619   8.3627   8.3764   8.3846   8.3903
     8.3926   8.4105   8.4255   8.4271   8.4406   8.4435   8.4548   8.4684
     8.4740   8.4813   8.4858   8.4913   8.5022   8.5126   8.5178   8.5210
     8.5349   8.5464   8.5628   8.5672   8.5806   8.5888   8.5974   8.6079

     occupation numbers 
     1.0000   1.0000   1.0000   1.0000   1.0000   1.0000   1.0000   1.0000
     1.0000   1.0000   1.0000   1.0000   1.0000   1.0000   1.0000   1.0000
     1.0000   1.0000   1.0000   1.0000   1.0000   1.0000   1.0000   1.0000
     1.0000   1.0000   1.0000   1.0000   1.0000   1.0000   1.0000   1.0000
     1.0000   1.0000   1.0000   1.0000   1.0000   1.0000   1.0000   1.0000
     1.0000   1.0000   1.0000   1.0000   1.0000   1.0000   1.0000   1.0000
     1.0000   1.0000   1.0000   1.0000   1.0000   1.0000   1.0000   1.0000
     1.0000   1.0000   1.0000   1.0000   1.0000   1.0000   1.0000   1.0000
     1.0000   1.0000   1.0000   1.0000   1.0000   1.0000   1.0000   1.0000
     1.0000   1.0000   1.0000   1.0000   1.0000   1.0000   1.0000   1.0000
     1.0000   1.0000   1.0000   1.0000   1.0000   1.0000   1.0000   1.0000
     1.0000   1.0000   1.0000   1.0000   1.0000   1.0000   1.0000   1.0000
     1.0000   1.0000   1.0000   1.0000   1.0000   1.0000   1.0000   1.0000
     1.0000   1.0000   1.0000   1.0000   1.0000   1.0000   1.0000   1.0000
     1.0000   1.0000   1.0000   1.0000   1.0000   1.0000   1.0000   1.0000
     1.0000   1.0000   1.0000   1.0000   1.0000   1.0000   1.0000   1.0000
     1.0000   1.0000   1.0000   1.0000   1.0000   1.0000   1.0000   1.0000
     1.0000   1.0000   1.0000   1.0000   1.0000   1.0000   1.0000   1.0000
     1.0000   1.0000   1.0000   1.0000   1.0000   1.0000   1.0000   1.0000
     1.0000   1.0000   1.0000   1.0000   1.0000   1.0000   1.0000   1.0000
     1.0000   1.0000   1.0000   1.0000   1.0000   1.0000   1.0000   1.0000
     1.0000   1.0000   1.0000   1.0000   1.0000   1.0000   1.0000   1.0000
     1.0000   1.0000   1.0000   1.0000   1.0000   1.0000   1.0000   1.0000
     1.0000   1.0000   1.0000   1.0000   1.0000   1.0000   1.0000   1.0000
     1.0000   1.0000   1.0000   1.0000   1.0000   1.0000   1.0000   1.0000
     1.0000   1.0000   1.0000   1.0000   1.0000   1.0000   1.0000   1.0000
     1.0000   1.0000   1.0000   1.0000   1.0000   1.0000   1.0000   1.0000
     1.0000   1.0000   1.0000   1.0000   1.0000   1.0000   1.0000   1.0000
     1.0000   1.0000   1.0000   1.0000   1.0000   1.0000   1.0000   1.0000
     1.0000   1.0000   1.0000   1.0000   1.0000   1.0000   1.0000   1.0000
     1.0000   1.0000   1.0000   1.0000   1.0000   1.0000   1.0000   1.0000
     1.0000   1.0000   1.0000   1.0000   1.0000   1.0000   1.0000   1.0000
     1.0000   1.0000   1.0000   1.0000   1.0000   1.0000   1.0000   1.0000
     1.0000   1.0000   1.0000   1.0000   1.0000   1.0000   1.0000   1.0000
     1.0000   1.0000   1.0000   1.0000   1.0000   1.0000   1.0000   1.0000
     1.0000   1.0000   1.0000   1.0000   1.0000   1.0000   1.0000   1.0000
     1.0000   1.0000   1.0000   1.0000   1.0000   1.0000   1.0000   1.0000
     1.0000   1.0000   1.0000   1.0000   1.0000   1.0000   1.0000   1.0000
     1.0000   1.0000   1.0000   1.0000   1.0000   1.0001   1.0001   1.0001
     1.0001   1.0001   1.0001   1.0001   1.0002   1.0002   1.0003   1.0003
     1.0003   1.0003   1.0004   1.0004   1.0005   1.0006   1.0010   1.0011
     1.0013   1.0013   1.0017   1.0017   1.0019   1.0019   1.0021   1.0021
     1.0023   1.0023   1.0025   1.0026   1.0028   1.0029   1.0030   1.0032
     1.0034   1.0035   1.0038   1.0039   1.0042   1.0044   1.0046   1.0048
     1.0051   1.0058   1.0061   1.0065   1.0068   1.0071   1.0087   1.0099
     1.0103   1.0109   1.0123   1.0146   1.0158   1.0189   1.0196   1.0204
     1.0206   1.0213   1.0225   1.0230   1.0232   1.0242   1.0248   1.0255
     1.0263   1.0266   1.0273   1.0290   1.0301   1.0304   1.0315   1.0317
     1.0329   1.0340   1.0348   1.0363   1.0380   1.0407   1.0421   1.0444
     1.0495   1.0514   1.0538   1.0548   1.0579   1.0580   1.0605   1.0636
     1.0652   1.0672   1.0713   1.0732   1.0745   1.0753   1.0782   1.0821
     1.0824   1.0829   1.0561   1.0079   0.9984   0.9932   0.9821   0.9718
     0.9657   0.9638   0.9573   0.9513   0.9500   0.9398   0.9396   0.9330
     0.9306   0.9174   0.9003   0.8702   0.7935   0.7205   0.7071   0.6671
     0.3781   0.1492   0.0193   0.0099   0.0030   0.0010   0.0005   0.0004
     0.0003   0.0002   0.0002   0.0001   0.0001   0.0001   0.0001   0.0001
     0.0001   0.0001   0.0000   0.0000   0.0000   0.0000   0.0000   0.0000
     0.0000   0.0000   0.0000   0.0000   0.0000   0.0000   0.0000   0.0000
     0.0000   0.0000   0.0000   0.0000   0.0000   0.0000   0.0000   0.0000
     0.0000   0.0000   0.0000   0.0000   0.0000   0.0000   0.0000   0.0000
     0.0000   0.0000   0.0000   0.0000   0.0000   0.0000   0.0000   0.0000
     0.0000   0.0000   0.0000   0.0000   0.0000   0.0000   0.0000   0.0000
     0.0000   0.0000   0.0000   0.0000   0.0000   0.0000   0.0000   0.0000
     0.0000   0.0000   0.0000   0.0000   0.0000   0.0000   0.0000   0.0000
     0.0000   0.0000   0.0000   0.0000   0.0000   0.0000   0.0000   0.0000

          k = 0.0000-0.5000-0.5000 (134912 PWs)   bands (ev):

    -5.6372  -5.6243  -5.6094  -5.5794  -5.2163  -5.1790  -5.1659  -5.1555
    -5.1339  -5.1180  -5.1035  -5.0770  -4.7658  -4.7215  -4.7089  -4.6896
    -4.6528  -4.6315  -4.6247  -4.5915  -4.3516  -4.3440  -4.3153  -4.3077
    -4.2696  -4.2627  -4.2375  -4.2312  -4.2267  -4.2201  -4.2180  -4.2104
    -4.1967  -4.1899  -4.1628  -4.1045  -3.8815  -3.8625  -3.8326  -3.8057
    -3.7914  -3.7900  -3.7667  -3.7468  -3.7398  -3.7295  -3.7003  -3.6935
    -3.6471  -3.6147  -3.6079  -3.5854  -3.5768  -3.5584  -3.5481  -3.5215
    -3.2406  -3.2150  -3.1786  -3.1672  -3.1573  -3.1497  -3.1465  -3.1352
    -3.1304  -3.1299  -3.1233  -3.1115  -3.1018  -3.0867  -3.0698  -3.0523
    -2.9333  -2.9056  -2.8514  -2.8460  -2.8295  -2.8201  -2.7913  -2.7579
    -2.7203  -2.7153  -2.6785  -2.6704  -2.6601  -2.6548  -2.6505  -2.6477
    -2.6415  -2.6314  -2.6259  -2.6208  -2.6033  -2.5550  -2.5385  -2.4468
    -2.3631  -2.3492  -2.3423  -2.3359  -2.3217  -2.3044  -2.2479  -2.1283
    -1.8621  -1.8573  -1.8391  -1.7722  -1.5023  -1.4756  -1.4460  -1.3946
    -1.1426  -0.9768  -0.9479  -0.9115  -0.8739  -0.8283  -0.8107  -0.8014
    -0.7855  -0.7791  -0.7564  -0.7370  -0.7147  -0.6941  -0.6849  -0.6552
    -0.6456  -0.6347  -0.6246  -0.6232  -0.6146  -0.6097  -0.5965  -0.5911
    -0.5889  -0.5711  -0.5660  -0.5626  -0.5397  -0.5350  -0.5201  -0.5104
    -0.5008  -0.4908  -0.4825  -0.4684  -0.4563  -0.4495  -0.4423  -0.4359
    -0.4287  -0.4217  -0.4171  -0.4137  -0.4088  -0.3943  -0.3910  -0.3851
    -0.3738  -0.3725  -0.3598  -0.3467  -0.3094  -0.1806   0.0119   0.1369
     0.4380   0.5064   0.5213   0.5656   0.5922   0.6229   0.6264   0.6375
     0.6432   0.6577   0.6687   0.7130   0.7311   0.7463   0.7596   0.7793
     0.7856   0.8186   0.8248   0.8337   0.8355   0.8424   0.8539   0.8711
     0.8841   0.9701   1.0567   1.2408   1.5043   1.5363   1.5953   1.6567
     1.7963   1.8549   1.8969   1.9141   1.9410   1.9749   1.9876   2.0162
     2.0374   2.0731   2.0975   2.1134   2.1258   2.1447   2.1524   2.1603
     2.1717   2.1780   2.1798   2.1873   2.1923   2.2007   2.2071   2.2104
     2.2279   2.2463   2.2573   2.2626   2.2790   2.2835   2.2934   2.3139
     2.3369   2.3565   2.3609   2.3895   2.3981   2.4260   2.4679   2.4739
     2.4833   2.4987   2.5083   2.5209   2.5319   2.5332   2.5518   2.5559
     2.5678   2.5727   2.5849   2.5979   2.5993   2.6590   2.6749   2.6892
     2.6965   2.7337   2.7679   2.8009   2.8443   2.8561   2.9093   2.9167
     2.9260   2.9377   2.9684   2.9918   2.9989   3.0042   3.0161   3.0245
     3.0350   3.0507   3.0622   3.0836   3.0891   3.1011   3.1118   3.1228
     3.1264   3.1373   3.1409   3.1631   3.1698   3.1876   3.2026   3.2154
     3.2259   3.2375   3.2563   3.2683   3.3515   3.3652   3.3998   3.4157
     3.4319   3.4442   3.4448   3.4616   3.4678   3.4751   3.4819   3.4874
     3.4988   3.5148   3.5210   3.5260   3.5313   3.5558   3.5624   3.5747
     3.5777   3.6073   3.6195   3.6360   3.6492   3.6539   3.6606   3.6683
     3.6804   3.6966   3.7006   3.7088   3.7225   3.7297   3.7368   3.7411
     3.7612   3.7756   3.7825   3.8058   3.8137   3.8282   3.8348   3.8432
     3.8599   3.8650   3.8680   3.8801   3.8951   3.9349   3.9611   4.0000
     4.0242   4.0494   4.0624   4.0756   4.0879   4.0971   4.1152   4.1380
     4.1409   4.1484   4.1567   4.1717   4.1778   4.1823   4.1936   4.1955
     4.2277   4.2381   4.2529   4.2747   4.3021   4.3351   4.3448   4.3935
     4.4141   4.4484   4.4550   4.4688   4.4806   4.4975   4.5105   4.5222
     4.5486   4.5652   4.5824   4.6049   4.6774   4.7117   4.7215   4.7364
     4.7520   4.7588   4.7609   4.7753   4.7774   4.7841   4.7904   4.8009
     4.8033   4.8164   4.8188   4.8272   4.8396   4.8501   4.8614   4.8662
     4.8749   4.8823   4.8884   4.8933   4.9047   4.9127   4.9355   4.9498
     4.9783   4.9862   4.9955   4.9995   5.0187   5.0323   5.0568   5.0966
     5.1133   5.1242   5.1498   5.1612   5.1908   5.2014   5.2233   5.2318
     5.2736   5.2877   5.3099   5.3491   5.8479   5.8982   5.9407   5.9723
     6.0471   6.2952   6.8596   7.0411   7.0918   7.1083   7.1658   7.2534
     7.3060   7.3446   7.3717   7.3863   7.3934   7.4269   7.4688   7.4852
     7.5025   7.5285   7.5407   7.5756   7.6036   7.6471   7.6707   7.6865
     7.7517   7.7616   7.8137   7.8299   7.8432   7.8485   7.8557   7.8667
     7.8829   7.8988   7.8991   7.9023   7.9086   7.9212   7.9373   7.9461
     7.9573   7.9586   7.9698   7.9895   7.9930   8.0001   8.0157   8.0362
     8.0530   8.0723   8.0842   8.1065   8.1330   8.1339   8.1505   8.1579
     8.1819   8.2009   8.2342   8.2450   8.2985   8.3366   8.3500   8.3780
     8.4298   8.4363   8.4838   8.5038   8.5194   8.5214   8.5385   8.5530
     8.5673   8.5779   8.5849   8.6320   8.6418   8.6479   8.6509   8.6573
     8.6682   8.6764   8.6805   8.6844   8.6933   8.6996   8.7067   8.7163

     occupation numbers 
     1.0000   1.0000   1.0000   1.0000   1.0000   1.0000   1.0000   1.0000
     1.0000   1.0000   1.0000   1.0000   1.0000   1.0000   1.0000   1.0000
     1.0000   1.0000   1.0000   1.0000   1.0000   1.0000   1.0000   1.0000
     1.0000   1.0000   1.0000   1.0000   1.0000   1.0000   1.0000   1.0000
     1.0000   1.0000   1.0000   1.0000   1.0000   1.0000   1.0000   1.0000
     1.0000   1.0000   1.0000   1.0000   1.0000   1.0000   1.0000   1.0000
     1.0000   1.0000   1.0000   1.0000   1.0000   1.0000   1.0000   1.0000
     1.0000   1.0000   1.0000   1.0000   1.0000   1.0000   1.0000   1.0000
     1.0000   1.0000   1.0000   1.0000   1.0000   1.0000   1.0000   1.0000
     1.0000   1.0000   1.0000   1.0000   1.0000   1.0000   1.0000   1.0000
     1.0000   1.0000   1.0000   1.0000   1.0000   1.0000   1.0000   1.0000
     1.0000   1.0000   1.0000   1.0000   1.0000   1.0000   1.0000   1.0000
     1.0000   1.0000   1.0000   1.0000   1.0000   1.0000   1.0000   1.0000
     1.0000   1.0000   1.0000   1.0000   1.0000   1.0000   1.0000   1.0000
     1.0000   1.0000   1.0000   1.0000   1.0000   1.0000   1.0000   1.0000
     1.0000   1.0000   1.0000   1.0000   1.0000   1.0000   1.0000   1.0000
     1.0000   1.0000   1.0000   1.0000   1.0000   1.0000   1.0000   1.0000
     1.0000   1.0000   1.0000   1.0000   1.0000   1.0000   1.0000   1.0000
     1.0000   1.0000   1.0000   1.0000   1.0000   1.0000   1.0000   1.0000
     1.0000   1.0000   1.0000   1.0000   1.0000   1.0000   1.0000   1.0000
     1.0000   1.0000   1.0000   1.0000   1.0000   1.0000   1.0000   1.0000
     1.0000   1.0000   1.0000   1.0000   1.0000   1.0000   1.0000   1.0000
     1.0000   1.0000   1.0000   1.0000   1.0000   1.0000   1.0000   1.0000
     1.0000   1.0000   1.0000   1.0000   1.0000   1.0000   1.0000   1.0000
     1.0000   1.0000   1.0000   1.0000   1.0000   1.0000   1.0000   1.0000
     1.0000   1.0000   1.0000   1.0000   1.0000   1.0000   1.0000   1.0000
     1.0000   1.0000   1.0000   1.0000   1.0000   1.0000   1.0000   1.0000
     1.0000   1.0000   1.0000   1.0000   1.0000   1.0000   1.0000   1.0000
     1.0000   1.0000   1.0000   1.0000   1.0000   1.0000   1.0000   1.0000
     1.0000   1.0000   1.0000   1.0000   1.0000   1.0000   1.0000   1.0000
     1.0000   1.0000   1.0000   1.0000   1.0000   1.0000   1.0000   1.0000
     1.0000   1.0000   1.0000   1.0000   1.0000   1.0000   1.0000   1.0000
     1.0000   1.0000   1.0000   1.0000   1.0000   1.0000   1.0000   1.0000
     1.0000   1.0000   1.0000   1.0000   1.0000   1.0000   1.0000   1.0000
     1.0000   1.0000   1.0000   1.0000   1.0000   1.0000   1.0000   1.0000
     1.0000   1.0000   1.0000   1.0000   1.0000   1.0000   1.0000   1.0000
     1.0000   1.0000   1.0000   1.0000   1.0000   1.0000   1.0000   1.0000
     1.0000   1.0000   1.0000   1.0000   1.0001   1.0001   1.0001   1.0001
     1.0001   1.0001   1.0001   1.0001   1.0001   1.0001   1.0001   1.0001
     1.0001   1.0002   1.0002   1.0002   1.0002   1.0002   1.0002   1.0003
     1.0003   1.0003   1.0003   1.0004   1.0004   1.0004   1.0004   1.0005
     1.0005   1.0006   1.0006   1.0007   1.0008   1.0008   1.0009   1.0009
     1.0010   1.0011   1.0011   1.0012   1.0013   1.0017   1.0020   1.0026
     1.0030   1.0035   1.0037   1.0040   1.0043   1.0045   1.0050   1.0057
     1.0058   1.0060   1.0063   1.0068   1.0071   1.0072   1.0077   1.0078
     1.0091   1.0096   1.0104   1.0115   1.0131   1.0153   1.0160   1.0197
     1.0215   1.0247   1.0253   1.0267   1.0279   1.0297   1.0311   1.0325
     1.0356   1.0376   1.0398   1.0427   1.0525   1.0572   1.0586   1.0606
     1.0627   1.0636   1.0639   1.0658   1.0661   1.0670   1.0678   1.0691
     1.0694   1.0710   1.0713   1.0722   1.0736   1.0748   1.0760   1.0764
     1.0773   1.0779   1.0785   1.0789   1.0798   1.0804   1.0818   1.0824
     1.0832   1.0833   1.0833   1.0833   1.0829   1.0824   1.0810   1.0768
     1.0744   1.0726   1.0676   1.0650   1.0573   1.0541   1.0470   1.0439
     1.0271   1.0206   1.0096   0.9878   0.5128   0.4588   0.4146   0.3829
     0.3125   0.1365   0.0083   0.0025   0.0018   0.0016   0.0010   0.0005
     0.0004   0.0003   0.0002   0.0002   0.0002   0.0001   0.0001   0.0001
     0.0001   0.0001   0.0000   0.0000   0.0000   0.0000   0.0000   0.0000
     0.0000   0.0000   0.0000   0.0000   0.0000   0.0000   0.0000   0.0000
     0.0000   0.0000   0.0000   0.0000   0.0000   0.0000   0.0000   0.0000
     0.0000   0.0000   0.0000   0.0000   0.0000   0.0000   0.0000   0.0000
     0.0000   0.0000   0.0000   0.0000   0.0000   0.0000   0.0000   0.0000
     0.0000   0.0000   0.0000   0.0000   0.0000   0.0000   0.0000   0.0000
     0.0000   0.0000   0.0000   0.0000   0.0000   0.0000   0.0000   0.0000
     0.0000   0.0000   0.0000   0.0000   0.0000   0.0000   0.0000   0.0000
     0.0000   0.0000   0.0000   0.0000   0.0000   0.0000   0.0000   0.0000

          k =-0.5000-0.5000-0.5000 (134688 PWs)   bands (ev):

    -5.5463  -5.5346  -5.5114  -5.4969  -5.4746  -5.4735  -5.4644  -5.4473
    -4.8118  -4.7246  -4.6828  -4.6580  -4.6287  -4.5855  -4.5660  -4.5611
    -4.5522  -4.5495  -4.5448  -4.5403  -4.5360  -4.5350  -4.5327  -4.5273
    -4.5241  -4.5223  -4.5174  -4.5122  -4.5103  -4.4742  -4.4349  -4.3778
    -3.9091  -3.8616  -3.8480  -3.8313  -3.8095  -3.7839  -3.7673  -3.7535
    -3.7469  -3.7459  -3.7429  -3.7368  -3.7348  -3.7291  -3.7272  -3.7268
    -3.7227  -3.7153  -3.7100  -3.7050  -3.6770  -3.6673  -3.6176  -3.5632
    -3.5098  -3.5045  -3.4933  -3.4679  -3.0340  -2.9307  -2.8945  -2.8738
    -2.8383  -2.8289  -2.8173  -2.7938  -2.7916  -2.7870  -2.7815  -2.7803
    -2.7775  -2.7726  -2.7691  -2.7644  -2.7591  -2.7544  -2.7488  -2.7456
    -2.7297  -2.7201  -2.6768  -2.6726  -2.6241  -2.6177  -2.6026  -2.5993
    -2.5910  -2.5879  -2.5858  -2.5803  -2.5786  -2.5755  -2.5729  -2.5682
    -2.5671  -2.5643  -2.5603  -2.5575  -2.5524  -2.5497  -2.5451  -2.5376
    -2.4985  -2.4106  -2.3508  -2.1003  -1.2770  -1.0748  -1.0083  -0.9651
    -0.8857  -0.8532  -0.8303  -0.8150  -0.7976  -0.7891  -0.7706  -0.7604
    -0.7561  -0.7531  -0.7427  -0.7423  -0.7345  -0.7246  -0.7224  -0.7195
    -0.7175  -0.7134  -0.6993  -0.6939  -0.6766  -0.6580  -0.6240  -0.5999
    -0.5747  -0.5187  -0.5175  -0.5076  -0.4856  -0.4772  -0.4713  -0.4674
    -0.4591  -0.4580  -0.4547  -0.4528  -0.4487  -0.4471  -0.4442  -0.4394
    -0.4360  -0.4291  -0.4239  -0.4192  -0.3971  -0.3456  -0.2919  -0.1975
    -0.1000  -0.0511  -0.0218   0.0030   0.0523   0.0686   0.0772   0.0830
     0.0953   0.0982   0.1019   0.1049   0.1105   0.1128   0.1147   0.1205
[...]
     atom   32 type  1   force =     0.00000595   -0.00000085    0.00000437
     atom   33 type  1   force =     0.00000380   -0.00000198    0.00000748
     atom   34 type  1   force =    -0.00000070   -0.00000255    0.00000602
     atom   35 type  1   force =    -0.00000509   -0.00000056    0.00000781
     atom   36 type  1   force =    -0.00000288   -0.00000362    0.00001059
     atom   37 type  1   force =    -0.00000653   -0.00000340    0.00000641
     atom   38 type  1   force =     0.00000883   -0.00000365    0.00000697
     atom   39 type  1   force =     0.00000585   -0.00000117    0.00000467
     atom   40 type  1   force =     0.00001067   -0.00000741    0.00000528
     atom   41 type  1   force =     0.00000243   -0.00000780   -0.00000158
     atom   42 type  1   force =    -0.00000042   -0.00000255    0.00000299
     atom   43 type  1   force =    -0.00000486    0.00000003   -0.00000242
     atom   44 type  1   force =    -0.00000518   -0.00000691   -0.00000931
     atom   45 type  1   force =    -0.00000710   -0.00000205   -0.00000790
     atom   46 type  1   force =     0.00000651   -0.00000486   -0.00000518
     atom   47 type  1   force =     0.00000294   -0.00000162   -0.00000794
     atom   48 type  1   force =     0.00000687   -0.00000275   -0.00000949
     atom   49 type  1   force =     0.00000341   -0.00000036   -0.00000703
     atom   50 type  1   force =    -0.00000034    0.00000064   -0.00001101
     atom   51 type  1   force =    -0.00000399    0.00000121   -0.00000660
     atom   52 type  1   force =     0.00000098   -0.00000365   -0.00000224
     atom   53 type  1   force =    -0.00000179   -0.00000171    0.00000353
     atom   54 type  1   force =     0.00000727    0.00000061   -0.00000378
     atom   55 type  1   force =     0.00000304    0.00000247    0.00000202
     atom   56 type  1   force =     0.00000925   -0.00000417    0.00000623
     atom   57 type  1   force =     0.00000761   -0.00000099    0.00001008
     atom   58 type  1   force =     0.00000191   -0.00000034    0.00000965
     atom   59 type  1   force =    -0.00000358    0.00000119    0.00001296
     atom   60 type  1   force =     0.00000133   -0.00000092    0.00000851
     atom   61 type  1   force =    -0.00000209    0.00000239    0.00000758
     atom   62 type  1   force =     0.00001185    0.00000186    0.00001160
     atom   63 type  1   force =     0.00000809    0.00000420    0.00000921
     atom   64 type  1   force =     0.00000900    0.00000002    0.00000261
     atom   65 type  1   force =     0.00000616    0.00000302   -0.00000327
     atom   66 type  1   force =     0.00000141    0.00000407    0.00000243
     atom   67 type  1   force =    -0.00000638    0.00000325   -0.00000480
     atom   68 type  1   force =     0.00000105   -0.00000092   -0.00000726
     atom   69 type  1   force =    -0.00000373    0.00000087   -0.00000986
     atom   70 type  1   force =     0.00000835    0.00000344   -0.00000601
     atom   71 type  1   force =     0.00000287    0.00000444   -0.00001167
     atom   72 type  1   force =    -0.00000780    0.00000037   -0.00001152
     atom   73 type  1   force =    -0.00000598    0.00000220   -0.00000571
     atom   74 type  1   force =    -0.00000429    0.00000159   -0.00000681
     atom   75 type  1   force =     0.00000061    0.00000117   -0.00000659
     atom   76 type  1   force =    -0.00000514    0.00000204   -0.00000104
     atom   77 type  1   force =    -0.00000366    0.00000118    0.00000207
     atom   78 type  1   force =    -0.00000780    0.00000119   -0.00000175
     atom   79 type  1   force =    -0.00000730    0.00000109    0.00000143
     atom   80 type  1   force =    -0.00000746    0.00000077    0.00000915
     atom   81 type  1   force =    -0.00000942    0.00000128    0.00000987
     atom   82 type  1   force =    -0.00000618   -0.00000057    0.00000538
     atom   83 type  1   force =    -0.00000235   -0.00000023    0.00000664
     atom   84 type  1   force =    -0.00000985    0.00000042    0.00000912
     atom   85 type  1   force =    -0.00000442    0.00000094    0.00000627
     atom   86 type  1   force =    -0.00001118   -0.00000168    0.00001136
     atom   87 type  1   force =    -0.00001105   -0.00000277    0.00000635
     atom   88 type  1   force =    -0.00001237    0.00000246    0.00000075
     atom   89 type  1   force =    -0.00001145   -0.00000127   -0.00000347
     atom   90 type  1   force =    -0.00000867    0.00000035    0.00000198
     atom   91 type  1   force =    -0.00000173   -0.00000065    0.00000006
     atom   92 type  1   force =    -0.00000785    0.00000109   -0.00000725
     atom   93 type  1   force =    -0.00000011   -0.00000040   -0.00000581
     atom   94 type  1   force =    -0.00001217    0.00000153   -0.00000984
     atom   95 type  1   force =    -0.00000808    0.00000049   -0.00000864
     atom   96 type  1   force =    -0.00000844   -0.00000031   -0.00000710
     atom   97 type  1   force =    -0.00000750    0.00000028   -0.00000546
     atom   98 type  1   force =    -0.00000560   -0.00000145   -0.00000666
     atom   99 type  1   force =    -0.00000260   -0.00000285   -0.00000585
     atom  100 type  1   force =    -0.00000550    0.00000056   -0.00000208
     atom  101 type  1   force =    -0.00000223   -0.00000115   -0.00000035
     atom  102 type  1   force =    -0.00000746   -0.00000172   -0.00000162
     atom  103 type  1   force =    -0.00000774   -0.00000172    0.00000160
     atom  104 type  1   force =    -0.00000900    0.00000009    0.00000585
     atom  105 type  1   force =    -0.00000920   -0.00000046    0.00000668
     atom  106 type  1   force =    -0.00000730   -0.00000092    0.00000359
     atom  107 type  1   force =    -0.00000535   -0.00000088    0.00000588
     atom  108 type  1   force =    -0.00000721   -0.00000138    0.00000774
     atom  109 type  1   force =    -0.00000329   -0.00000129    0.00000529
     atom  110 type  1   force =    -0.00000777    0.00000007    0.00000773
     atom  111 type  1   force =    -0.00000960    0.00000059    0.00000469
     atom  112 type  1   force =    -0.00001229   -0.00000407    0.00000254
     atom  113 type  1   force =    -0.00000915   -0.00000024   -0.00000169
     atom  114 type  1   force =    -0.00000686   -0.00000053    0.00000298
     atom  115 type  1   force =    -0.00000560   -0.00000161   -0.00000376
     atom  116 type  1   force =    -0.00000041   -0.00000112   -0.00000541
     atom  117 type  1   force =    -0.00000741   -0.00000019   -0.00000461
     atom  118 type  1   force =    -0.00000743   -0.00000014   -0.00000800
     atom  119 type  1   force =    -0.00000571   -0.00000192   -0.00000883
     atom  120 type  1   force =    -0.00000673   -0.00000175   -0.00000595
     atom  121 type  1   force =    -0.00000612   -0.00000047   -0.00000855
     atom  122 type  1   force =    -0.00000248    0.00000111   -0.00000702
     atom  123 type  1   force =    -0.00000700   -0.00000158   -0.00000287
     atom  124 type  1   force =    -0.00000555   -0.00000086    0.00000175
     atom  125 type  1   force =    -0.00000687   -0.00000125   -0.00000129
     atom  126 type  1   force =    -0.00000746    0.00000049    0.00000318
     atom  127 type  1   force =    -0.00000748   -0.00000053    0.00000633
     atom  128 type  1   force =    -0.00000988    0.00000090    0.00000840
     atom  129 type  1   force =    -0.00000834   -0.00000101    0.00000695
     atom  130 type  1   force =    -0.00000647    0.00000149    0.00000755
     atom  131 type  1   force =    -0.00000990   -0.00000056    0.00000829
     atom  132 type  1   force =    -0.00000671    0.00000110    0.00000617
     atom  133 type  1   force =    -0.00000817    0.00000175    0.00001066
     atom  134 type  1   force =    -0.00001178    0.00000134    0.00000600
     atom  135 type  1   force =    -0.00000866    0.00000133    0.00000064
     atom  136 type  1   force =    -0.00000940    0.00000187   -0.00000365
     atom  137 type  1   force =    -0.00000909    0.00000011    0.00000303
     atom  138 type  1   force =    -0.00000653    0.00000163   -0.00000200
     atom  139 type  1   force =    -0.00000436   -0.00000045    0.00000020
     atom  140 type  1   force =    -0.00000638    0.00000080   -0.00000639
     atom  141 type  1   force =    -0.00000788    0.00000052   -0.00000739
     atom  142 type  1   force =    -0.00000984    0.00000060   -0.00001122
     atom  143 type  1   force =     0.00000199    0.00000326   -0.00000825
     atom  144 type  1   force =     0.00000649    0.00000476   -0.00000404
     atom  145 type  1   force =     0.00000888    0.00000220   -0.00000821
     atom  146 type  1   force =     0.00000814    0.00000046   -0.00000665
     atom  147 type  1   force =     0.00000619    0.00000511   -0.00000920
     atom  148 type  1   force =     0.00000627    0.00000514   -0.00000082
     atom  149 type  1   force =     0.00000551    0.00000119   -0.00000424
     atom  150 type  1   force =     0.00000590    0.00000134   -0.00000151
     atom  151 type  1   force =    -0.00000149    0.00000302    0.00000331
     atom  152 type  1   force =     0.00000496    0.00000408    0.00000663
     atom  153 type  1   force =     0.00000750    0.00000239    0.00000370
     atom  154 type  1   force =     0.00000953    0.00000138    0.00000747
     atom  155 type  1   force =     0.00000809    0.00000443    0.00000959
     atom  156 type  1   force =     0.00001165    0.00000432    0.00001062
     atom  157 type  1   force =     0.00000127    0.00000071    0.00000728
     atom  158 type  1   force =     0.00000670   -0.00000000    0.00000755
     atom  159 type  1   force =    -0.00000017    0.00000218    0.00000381
     atom  160 type  1   force =     0.00000827    0.00000258    0.00000062
     atom  161 type  1   force =     0.00001177    0.00000056    0.00000445
     atom  162 type  1   force =     0.00001359   -0.00000236   -0.00000002
     atom  163 type  1   force =     0.00000983    0.00000546   -0.00000504
     atom  164 type  1   force =     0.00000914    0.00000326   -0.00000928
     atom  165 type  1   force =     0.00000466    0.00000235   -0.00000334
     atom  166 type  1   force =     0.00000671   -0.00000110   -0.00000688
     atom  167 type  1   force =     0.00000387   -0.00000146   -0.00000692
     atom  168 type  1   force =     0.00000641   -0.00000323   -0.00000659
     atom  169 type  1   force =     0.00000708   -0.00000545   -0.00000716
     atom  170 type  1   force =     0.00000776   -0.00000472   -0.00000582
     atom  171 type  1   force =     0.00000829   -0.00000185   -0.00000473
     atom  172 type  1   force =     0.00000838   -0.00000420   -0.00000022
     atom  173 type  1   force =     0.00000006   -0.00000240   -0.00000288
     atom  174 type  1   force =     0.00000410   -0.00000485   -0.00000020
     atom  175 type  1   force =     0.00000242   -0.00000136    0.00000275
     atom  176 type  1   force =     0.00000571   -0.00000273    0.00000660
     atom  177 type  1   force =     0.00000812   -0.00000397    0.00000321
     atom  178 type  1   force =     0.00000986   -0.00000494    0.00000672
     atom  179 type  1   force =     0.00000932   -0.00000195    0.00000721
     atom  180 type  1   force =     0.00001047   -0.00000493    0.00000702
     atom  181 type  1   force =     0.00000070   -0.00000325    0.00000708
     atom  182 type  1   force =     0.00000457   -0.00000256    0.00000647
     atom  183 type  1   force =     0.00000322   -0.00000217    0.00000290
     atom  184 type  1   force =     0.00000610   -0.00000363    0.00000076
     atom  185 type  1   force =     0.00000832   -0.00000451    0.00000323
     atom  186 type  1   force =     0.00000900   -0.00000300    0.00000016
     atom  187 type  1   force =     0.00000878   -0.00000322   -0.00000340
     atom  188 type  1   force =     0.00000739   -0.00000525   -0.00000619
     atom  189 type  1   force =     0.00000118   -0.00000318   -0.00000282
     atom  190 type  1   force =     0.00000407   -0.00000298   -0.00000559
     atom  191 type  1   force =     0.00000022   -0.00000256   -0.00000697
     atom  192 type  1   force =     0.00000271   -0.00000083   -0.00000738
     atom  193 type  1   force =     0.00000672    0.00000277   -0.00000849
     atom  194 type  1   force =     0.00000459    0.00000476   -0.00001045
     atom  195 type  1   force =     0.00000677   -0.00000364   -0.00000349
     atom  196 type  1   force =     0.00000801   -0.00000145    0.00000048
     atom  197 type  1   force =    -0.00000034    0.00000202   -0.00000381
     atom  198 type  1   force =     0.00000236    0.00000349   -0.00000121
     atom  199 type  1   force =    -0.00000262   -0.00000190    0.00000424
     atom  200 type  1   force =     0.00000303    0.00000017    0.00000670
     atom  201 type  1   force =     0.00000672    0.00000061    0.00000534
     atom  202 type  1   force =     0.00000902    0.00000357    0.00000821
     atom  203 type  1   force =     0.00000752   -0.00000276    0.00000857
     atom  204 type  1   force =     0.00001101    0.00000081    0.00000815
     atom  205 type  1   force =    -0.00000295    0.00000070    0.00000835
     atom  206 type  1   force =     0.00000544    0.00000333    0.00000744
     atom  207 type  1   force =    -0.00000176   -0.00000166    0.00000429
     atom  208 type  1   force =     0.00000429    0.00000039    0.00000066
     atom  209 type  1   force =     0.00000924    0.00000297    0.00000372
     atom  210 type  1   force =     0.00001064    0.00000545   -0.00000099
     atom  211 type  1   force =     0.00000688   -0.00000182   -0.00000391
     atom  212 type  1   force =     0.00000883    0.00000112   -0.00000844
     atom  213 type  1   force =    -0.00000041    0.00000181   -0.00000371
     atom  214 type  1   force =     0.00000438    0.00000381   -0.00000678
     atom  215 type  2   force =     0.00000032    0.00000060   -0.00000057
     atom  216 type  2   force =    -0.00000272    0.00000031   -0.00000065
     atom  217 type  2   force =     0.00000121    0.00000158   -0.00000073
     atom  218 type  2   force =    -0.00000195   -0.00000090   -0.00000150
     atom  219 type  2   force =     0.00000134    0.00000073   -0.00000133
     atom  220 type  2   force =    -0.00000131   -0.00000084   -0.00000082
     atom  221 type  2   force =     0.00000155    0.00000089   -0.00000167
     atom  222 type  2   force =     0.00000040    0.00000062    0.00000262
     atom  223 type  2   force =    -0.00000107   -0.00000054   -0.00000195
     atom  224 type  2   force =     0.00000153   -0.00000190   -0.00000157

     Total force =     0.097669     Total SCF correction =     0.000145


     Computing stress (Cartesian axis) and pressure

          total   stress  (Ry/bohr**3)                   (kbar)     P=   12.16
   0.00007628   0.00000722  -0.00000997         11.22      1.06     -1.47
   0.00000722   0.00009626  -0.00001543          1.06     14.16     -2.27
  -0.00000997  -0.00001543   0.00007534         -1.47     -2.27     11.08

     kinetic stress (kbar)   2276.33      1.63     -2.33
                                1.63   2278.52     -1.56
                               -2.33     -1.56   2276.21

     local   stress (kbar)  -1230.33    -12.63     19.01
                              -12.63  -1205.09    -18.20
                               19.01    -18.20  -1233.89

     nonloc. stress (kbar)   2561.81      0.95      0.11
                                0.95   2560.14      0.93
                                0.11      0.93   2562.11

     hartree stress (kbar)    207.82      4.26     -7.41
                                4.26    202.55      4.97
                               -7.41      4.97    208.84

     exc-cor stress (kbar)   -804.77      0.01     -0.07
                                0.01   -804.82      0.05
                               -0.07      0.05   -804.76

     corecor stress (kbar)      0.00      0.00      0.00
                                0.00      0.00      0.00
                                0.00      0.00      0.00

     ewald   stress (kbar)  -2999.63      6.85    -10.78
                                6.85  -3017.15     11.54
                              -10.78     11.54  -2997.43

     hubbard stress (kbar)      0.00      0.00      0.00
                                0.00      0.00      0.00
                                0.00      0.00      0.00

     london  stress (kbar)      0.00      0.00      0.00
                                0.00      0.00      0.00
                                0.00      0.00      0.00

     DFT-D3  stress (kbar)      0.00      0.00      0.00
                                0.00      0.00      0.00
                                0.00      0.00      0.00

     XDM     stress (kbar)      0.00      0.00      0.00
                                0.00      0.00      0.00
                                0.00      0.00      0.00

     dft-nl  stress (kbar)      0.00      0.00      0.00
                                0.00      0.00      0.00
                                0.00      0.00      0.00

     TS-vdW  stress (kbar)      0.00      0.00      0.00
                                0.00      0.00      0.00
                                0.00      0.00      0.00



     Writing output data file divacancy_optimize5.save

     init_run     :    229.67s CPU    238.39s WALL (       1 calls)
     electrons    :   8921.25s CPU   9262.97s WALL (       1 calls)
     forces       :     79.39s CPU     80.06s WALL (       1 calls)
     stress       :    755.34s CPU    760.31s WALL (       1 calls)

     Called by init_run:
     wfcinit      :    226.26s CPU    234.90s WALL (       1 calls)
     wfcinit:atom :      0.74s CPU      1.56s WALL (       8 calls)
     wfcinit:wfcr :    214.74s CPU    221.63s WALL (       8 calls)
     potinit      :      0.37s CPU      0.40s WALL (       1 calls)

     Called by electrons:
     c_bands      :   8345.96s CPU   8658.03s WALL (      21 calls)
     sum_band     :    569.45s CPU    594.29s WALL (      21 calls)
     v_of_rho     :      4.86s CPU      5.06s WALL (      21 calls)
     v_h          :      0.27s CPU      0.29s WALL (      21 calls)
     v_xc         :      4.59s CPU      4.77s WALL (      21 calls)
     mix_rho      :      0.99s CPU      1.19s WALL (      21 calls)

     Called by c_bands:
     init_us_2    :     31.04s CPU     32.89s WALL (     360 calls)
     cegterg      :   8282.61s CPU   8553.73s WALL (     168 calls)

     Called by sum_band:

     Called by *egterg:
     h_psi        :   4355.75s CPU   4487.30s WALL (     945 calls)
     g_psi        :     13.08s CPU     13.13s WALL (     769 calls)
     cdiaghg      :   1467.52s CPU   1472.77s WALL (     929 calls)
     cegterg:over :   1074.04s CPU   1085.63s WALL (     769 calls)
     cegterg:upda :    703.46s CPU    711.31s WALL (     769 calls)
     cegterg:last :    407.96s CPU    412.31s WALL (     168 calls)

     Called by h_psi:
     h_psi:pot    :   4333.32s CPU   4462.36s WALL (     945 calls)
     h_psi:calbec :    906.56s CPU    916.84s WALL (     945 calls)
     vloc_psi     :   2522.81s CPU   2636.36s WALL (     945 calls)
     add_vuspsi   :    903.94s CPU    909.16s WALL (     945 calls)

     General routines
     calbec       :    991.80s CPU   1002.46s WALL (     985 calls)
     fft          :      2.42s CPU      2.64s WALL (     240 calls)
     fftw         :   2714.11s CPU   2845.75s WALL (  508164 calls)

     Parallel routines
     fft_scatt_xy :    411.66s CPU    414.06s WALL (  508404 calls)
     fft_scatt_yz :    562.41s CPU    680.11s WALL (  508404 calls)

     PWSCF        :     2h46m CPU        2h52m WALL


   This run was terminated on:  11:41:16   7Nov2020            

=------------------------------------------------------------------------------=
   JOB DONE.
=------------------------------------------------------------------------------=
