
     Program PWSCF v.6.2 (svn rev. 14038) starts on  7Nov2020 at  8:10:16 

     This program is part of the open-source Quantum ESPRESSO suite
     for quantum simulation of materials; please cite
         "P. Giannozzi et al., J. Phys.:Condens. Matter 21 395502 (2009);
         "P. Giannozzi et al., J. Phys.:Condens. Matter 29 465901 (2017);
          URL http://www.quantum-espresso.org", 
     in publications or presentations arising from this work. More details at
     http://www.quantum-espresso.org/quote

     Parallel version (MPI), running on     8 processors

     MPI processes distributed on     1 nodes
     R & G space division:  proc/nbgrp/npool/nimage =       8
     Waiting for input...
     Reading input from standard input
Warning: card &IONS ignored
Warning: card / ignored

     Current dimensions of program PWSCF are:
     Max number of different atomic species (ntypx) = 10
     Max number of k-points (npk) =  40000
     Max angular momentum in pseudopotentials (lmaxx) =  3

     Subspace diagonalization in iterative solution of the eigenvalue problem:
     a serial algorithm will be used


     Parallelization info
     --------------------
     sticks:   dense  smooth     PW     G-vecs:    dense   smooth      PW
     Min        1589    1589    419               134811   134811   18265
     Max        1590    1590    420               134814   134814   18266
     Sum       12717   12717   3357              1078507  1078507  146125



     bravais-lattice index     =            0
     lattice parameter (alat)  =      30.8403  a.u.
     unit-cell volume          =   29332.9180 (a.u.)^3
     number of atoms/cell      =          231
     number of atomic types    =            2
     number of electrons       =       873.00
     number of Kohn-Sham states=          524
     kinetic-energy cutoff     =      42.0000  Ry
     charge density cutoff     =     168.0000  Ry
     convergence threshold     =      1.0E-08
     mixing beta               =       0.3000
     number of iterations used =            8  plain     mixing
     Exchange-correlation      = SLA-PW-PBX-PBC ( 1  4  3  4 0 0)

     celldm(1)=  30.840288  celldm(2)=   0.000000  celldm(3)=   0.000000
     celldm(4)=   0.000000  celldm(5)=   0.000000  celldm(6)=   0.000000

     crystal axes: (cart. coord. in units of alat)
               a(1) = (   1.000000   0.000000   0.000000 )  
               a(2) = (   0.000000   1.000000   0.000000 )  
               a(3) = (   0.000000   0.000000   1.000000 )  

     reciprocal axes: (cart. coord. in units 2 pi/alat)
               b(1) = (  1.000000  0.000000  0.000000 )  
               b(2) = (  0.000000  1.000000  0.000000 )  
               b(3) = (  0.000000  0.000000  1.000000 )  


     PseudoPot. # 1 for Si read from file:
     ./Si.pbe-hgh.UPF
     MD5 check sum: 9a9f0f6e09139bfdb36b03ff6bc35900
     Pseudo is Norm-conserving, Zval =  4.0
     Generated in analytical, separable form
     Using radial grid of 1141 points,  3 beta functions with: 
                l(1) =   0
                l(2) =   0
                l(3) =   1

     PseudoPot. # 2 for H  read from file:
     ./H.pbe-hgh.UPF
     MD5 check sum: 5f350582108a937bec95f27f5610ab08
     Pseudo is Norm-conserving, Zval =  1.0
     Generated in analytical, separable form
     Using radial grid of  929 points,  0 beta functions with: 

     atomic species   valence    mass     pseudopotential
        Si             4.00    28.08000     Si( 1.00)
        H              1.00     1.00784     H ( 1.00)

     No symmetry found


                                    s                        frac. trans.

      isym =  1     identity                                     

 cryst.   s( 1) = (     1          0          0      )
                  (     0          1          0      )
                  (     0          0          1      )

 cart.    s( 1) = (  1.0000000  0.0000000  0.0000000 )
                  (  0.0000000  1.0000000  0.0000000 )
                  (  0.0000000  0.0000000  1.0000000 )


   Cartesian axes

     site n.     atom                  positions (alat units)
         1           Si  tau(   1) = (   0.0799786   0.0809208   0.0889347  )
         2           Si  tau(   2) = (   0.1763730   0.1554780   0.0144200  )
         3           Si  tau(   3) = (   0.2514310   0.2511150   0.0888725  )
         4           Si  tau(   4) = (   0.1648910   0.9984720   0.1704440  )
         5           Si  tau(   5) = (   0.2476600   0.0833440   0.2524480  )
         6           Si  tau(   6) = (   0.9977570   0.1662270   0.1715270  )
         7           Si  tau(   7) = (   0.0812830   0.2505950   0.2529780  )
         8           Si  tau(   8) = (   0.0001565   0.0009871   0.3347540  )
         9           Si  tau(   9) = (   0.0825730   0.0835170   0.4188940  )
        10           Si  tau(  10) = (   0.1647630   0.1672490   0.3355090  )
        11           Si  tau(  11) = (   0.2475790   0.2511180   0.4180010  )
        12           Si  tau(  12) = (   0.1655060   0.9989310   0.5007290  )
        13           Si  tau(  13) = (   0.2461780   0.0815881   0.5851330  )
        14           Si  tau(  14) = (   0.9997890   0.1663640   0.5028290  )
        15           Si  tau(  15) = (   0.0822163   0.2506150   0.5852900  )
        16           Si  tau(  16) = (   1.0002800  -0.0000126   0.6680750  )
        17           Si  tau(  17) = (   0.0831392   0.0833271   0.7510250  )
        18           Si  tau(  18) = (   0.1650330   0.1667550   0.6674830  )
        19           Si  tau(  19) = (   0.2483580   0.2485970   0.7514970  )
        20           Si  tau(  20) = (   0.1641100   0.0004097   0.8362900  )
        21           Si  tau(  21) = (   0.2505550   0.0803561   0.9187130  )
        22           Si  tau(  22) = (   0.9954470   0.1624210   0.8321860  )
        23           Si  tau(  23) = (   0.0600807   0.2733540   0.8971330  )
        24           Si  tau(  24) = (   0.9950350   0.3376730   0.0084591  )
        25           Si  tau(  25) = (   0.0848645   0.4191780   0.0853212  )
        26           Si  tau(  26) = (   0.1675850   0.5021820   0.0015723  )
        27           Si  tau(  27) = (   0.2512750   0.5849200   0.0841640  )
        28           Si  tau(  28) = (   0.1646260   0.3333170   0.1689540  )
        29           Si  tau(  29) = (   0.2479220   0.4168840   0.2512670  )
        30           Si  tau(  30) = (   0.0008253   0.5018120   0.1675300  )
        31           Si  tau(  31) = (   0.0841924   0.5841990   0.2507930  )
        32           Si  tau(  32) = (   0.9978400   0.3344760   0.3356150  )
        33           Si  tau(  33) = (   0.0821254   0.4170870   0.4181840  )
        34           Si  tau(  34) = (   0.1652480   0.4999360   0.3347460  )
        35           Si  tau(  35) = (   0.2481780   0.5828510   0.4181840  )
        36           Si  tau(  36) = (   0.1648680   0.3341170   0.5017440  )
        37           Si  tau(  37) = (   0.2482430   0.4174070   0.5846270  )
        38           Si  tau(  38) = (   0.0000729   0.5006300   0.5017550  )
        39           Si  tau(  39) = (   0.0832311   0.5853470   0.5835140  )
        40           Si  tau(  40) = (   1.0002000   0.3336080   0.6700460  )
        41           Si  tau(  41) = (   0.0839153   0.4205050   0.7495430  )
        42           Si  tau(  42) = (   0.1666480   0.5033230   0.6660480  )
        43           Si  tau(  43) = (   0.2495740   0.5843310   0.7515040  )
        44           Si  tau(  44) = (   0.1694130   0.3385130   0.8305790  )
        45           Si  tau(  45) = (   0.2499810   0.4180710   0.9187640  )
        46           Si  tau(  46) = (   0.0007262   0.4993480   0.8375360  )
        47           Si  tau(  47) = (   0.0836360   0.5842220   0.9188210  )
        48           Si  tau(  48) = (   0.9997520   0.6669060   0.0015226  )
        49           Si  tau(  49) = (   0.0831415   0.7498720   0.0845623  )
        50           Si  tau(  50) = (   0.1657310   0.8328880   0.0008579  )
        51           Si  tau(  51) = (   0.2471560   0.9157380   0.0858515  )
        52           Si  tau(  52) = (   0.1670380   0.6670270   0.1672060  )
        53           Si  tau(  53) = (   0.2493750   0.7495440   0.2514120  )
        54           Si  tau(  54) = (   0.0004398   0.8328850   0.1679080  )
        55           Si  tau(  55) = (   0.0820604   0.9155520   0.2529460  )
        56           Si  tau(  56) = (   0.0021330   0.6670020   0.3348000  )
        57           Si  tau(  57) = (   0.0848579   0.7500780   0.4184390  )
        58           Si  tau(  58) = (   0.1666020   0.8326960   0.3346640  )
        59           Si  tau(  59) = (   0.2491000   0.9152360   0.4184900  )
        60           Si  tau(  60) = (   0.1680660   0.6678360   0.5022130  )
        61           Si  tau(  61) = (   0.2521920   0.7502690   0.5860380  )
        62           Si  tau(  62) = (   0.0029714   0.8358830   0.4996080  )
        63           Si  tau(  63) = (   0.0838322   0.9170480   0.5850610  )
        64           Si  tau(  64) = (   0.9992700   0.6668320   0.6672650  )
        65           Si  tau(  65) = (   0.0827264   0.7499100   0.7507430  )
        66           Si  tau(  66) = (   0.1664130   0.8327720   0.6678060  )
        67           Si  tau(  67) = (   0.2458240   0.9181520   0.7515740  )
        68           Si  tau(  68) = (   0.1657860   0.6670390   0.8343180  )
        69           Si  tau(  69) = (   0.2486160   0.7504100   0.9169660  )
        70           Si  tau(  70) = (   0.9992720   0.8331040   0.8342470  )
        71           Si  tau(  71) = (   0.0819092   0.9156970   0.9184520  )
        72           Si  tau(  72) = (   0.3313030   0.9991440   0.0046654  )
        73           Si  tau(  73) = (   0.4142450   0.0842347   0.0857382  )
        74           Si  tau(  74) = (   0.4961960   0.1652820   0.9996410  )
        75           Si  tau(  75) = (   0.5787090   0.2515050   0.0798999  )
        76           Si  tau(  76) = (   0.4976650   0.0005325   0.1675500  )
        77           Si  tau(  77) = (   0.5787360   0.0804040   0.2539690  )
        78           Si  tau(  78) = (   0.3328510   0.1665350   0.1711080  )
        79           Si  tau(  79) = (   0.4167020   0.2502810   0.2519230  )
        80           Si  tau(  80) = (   0.3305020   0.9992170   0.3349830  )
        81           Si  tau(  81) = (   0.4109930   0.0844069   0.4181060  )
        82           Si  tau(  82) = (   0.4965870   0.1648800   0.3355710  )
        83           Si  tau(  83) = (   0.5784700   0.2483600   0.4188220  )
        84           Si  tau(  84) = (   0.4945260   0.0043717   0.5023570  )
        85           Si  tau(  85) = (   0.5764830   0.0868123   0.5852070  )
        86           Si  tau(  86) = (   0.3267470   0.1648870   0.5014750  )
        87           Si  tau(  87) = (   0.4078680   0.2446960   0.5875940  )
        88           Si  tau(  88) = (   0.3297280  -0.0007968   0.6684730  )
        89           Si  tau(  89) = (   0.4117640   0.0821270   0.7520360  )
        90           Si  tau(  90) = (   0.4949500   0.1667330   0.6708900  )
        91           Si  tau(  91) = (   0.5799280   0.2519750   0.7497460  )
        92           Si  tau(  92) = (   0.4943230   0.9986980   0.8356910  )
        93           Si  tau(  93) = (   0.5783810   0.0828631   0.9154150  )
        94           Si  tau(  94) = (   0.3309750   0.1665390   0.8363300  )
        95           Si  tau(  95) = (   0.4147400   0.2504890   0.9177030  )
        96           Si  tau(  96) = (   0.3313480   0.3329650   0.0012282  )
        97           Si  tau(  97) = (   0.4119040   0.4176270   0.0849904  )
        98           Si  tau(  98) = (   0.4974000   0.4989020   0.0037099  )
        99           Si  tau(  99) = (   0.5806430   0.5827540   0.0858766  )
       100           Si  tau( 100) = (   0.4964330   0.3338400   0.1651060  )
       101           Si  tau( 101) = (   0.5799670   0.4165080   0.2487810  )
       102           Si  tau( 102) = (   0.3316300   0.5012140   0.1696150  )
       103           Si  tau( 103) = (   0.4163820   0.5824450   0.2539050  )
       104           Si  tau( 104) = (   0.3311460   0.3332600   0.3336010  )
       105           Si  tau( 105) = (   0.4129460   0.4160150   0.4177160  )
       106           Si  tau( 106) = (   0.5004820   0.4978090   0.3367170  )
       107           Si  tau( 107) = (   0.5866660   0.5823800   0.4183970  )
       108           Si  tau( 108) = (   0.4860540   0.3227210   0.4988200  )
       109           Si  tau( 109) = (   0.5688420   0.4066360   0.5805520  )
       110           Si  tau( 110) = (   0.3315100   0.5001630   0.5014410  )
       111           Si  tau( 111) = (   0.4155310   0.5842920   0.5829290  )
       112           Si  tau( 112) = (   0.3297410   0.3334980   0.6685780  )
       113           Si  tau( 113) = (   0.4145650   0.4154760   0.7507990  )
       114           Si  tau( 114) = (   0.4954150   0.4975220   0.6639430  )
       115           Si  tau( 115) = (   0.4978310   0.3341040   0.8347780  )
       116           Si  tau( 116) = (   0.5796030   0.4184300   0.9177290  )
       117           Si  tau( 117) = (   0.3325080   0.4999260   0.8333910  )
       118           Si  tau( 118) = (   0.4137580   0.5803000   0.9206440  )
       119           Si  tau( 119) = (   0.3334900   0.6687390   0.9994900  )
       120           Si  tau( 120) = (   0.4155320   0.7497070   0.0854531  )
       121           Si  tau( 121) = (   0.4962820   0.8362610   0.0036995  )
       122           Si  tau( 122) = (   0.5828050   0.9192520   0.0851855  )
       123           Si  tau( 123) = (   0.4978460   0.6659420   0.1687320  )
       124           Si  tau( 124) = (   0.5826130   0.7497740   0.2489680  )
       125           Si  tau( 125) = (   0.3316490   0.8328690   0.1677350  )
       126           Si  tau( 126) = (   0.4136470   0.9175560   0.2499670  )
       127           Si  tau( 127) = (   0.3313980   0.6655160   0.3350700  )
       128           Si  tau( 128) = (   0.4166520   0.7485900   0.4161640  )
       129           Si  tau( 129) = (   0.4970020   0.8319780   0.3297730  )
       130           Si  tau( 130) = (   0.5708610   0.9078150   0.4274470  )
       131           Si  tau( 131) = (   0.5011580   0.6652740   0.4999250  )
       132           Si  tau( 132) = (   0.5840440   0.7502510   0.5812850  )
       133           Si  tau( 133) = (   0.3344510   0.8326160   0.5005770  )
       134           Si  tau( 134) = (   0.4139430   0.9184850   0.5841310  )
       135           Si  tau( 135) = (   0.3357670   0.6665550   0.6701760  )
       136           Si  tau( 136) = (   0.4157480   0.7555590   0.7504360  )
       137           Si  tau( 137) = (   0.5001960   0.8344670   0.6628000  )
       138           Si  tau( 138) = (   0.5832590   0.9161400   0.7490050  )
       139           Si  tau( 139) = (   0.5815010   0.5797960   0.7435350  )
       140           Si  tau( 140) = (   0.5969980   0.7660940   0.9317840  )
       141           Si  tau( 141) = (   0.3288170   0.8355040   0.8333070  )
       142           Si  tau( 142) = (   0.4110380   0.9160540   0.9200600  )
       143           Si  tau( 143) = (   0.6635780   0.9980370   0.9948080  )
       144           Si  tau( 144) = (   0.8329380   0.9981120   0.1692630  )
       145           Si  tau( 145) = (   0.8396300   0.1782540   0.9906000  )
       146           Si  tau( 146) = (   0.9139980   0.2506490   0.0904911  )
       147           Si  tau( 147) = (   0.9154780   0.9159610   0.0859046  )
       148           Si  tau( 148) = (   0.9131350   0.0821973   0.2535380  )
       149           Si  tau( 149) = (   0.6478920   0.1848490   0.1855330  )
       150           Si  tau( 150) = (   0.7509060   0.2539040   0.2590590  )
       151           Si  tau( 151) = (   0.6753410   0.0048228   0.3289510  )
       152           Si  tau( 152) = (   0.7488520   0.0829323   0.4258120  )
       153           Si  tau( 153) = (   0.8317830   0.1654340   0.3406160  )
       154           Si  tau( 154) = (   0.9166090   0.2503410   0.4205570  )
       155           Si  tau( 155) = (   0.8350700   0.9976590   0.5032710  )
       156           Si  tau( 156) = (   0.9158200   0.0833546   0.5862280  )
       157           Si  tau( 157) = (   0.6623620   0.1679460   0.5040100  )
       158           Si  tau( 158) = (   0.7468070   0.2507880   0.5861940  )
       159           Si  tau( 159) = (   0.6762060   0.0116773   0.6567670  )
       160           Si  tau( 160) = (   0.7500860   0.0854955   0.7552690  )
       161           Si  tau( 161) = (   0.8305980   0.1669870   0.6679820  )
       162           Si  tau( 162) = (   0.9130880   0.2506800   0.7512990  )
       163           Si  tau( 163) = (   0.8335700  -0.0006416   0.8345380  )
       164           Si  tau( 164) = (   0.9157780   0.0796374   0.9194620  )
       165           Si  tau( 165) = (   0.6610220   0.1668120   0.8328620  )
       166           Si  tau( 166) = (   0.7419330   0.2518930   0.9154350  )
       167           Si  tau( 167) = (   0.6635220   0.3360980   0.0007102  )
       168           Si  tau( 168) = (   0.7479570   0.4174280   0.0852000  )
       169           Si  tau( 169) = (   0.8297800   0.5021600   0.0018868  )
       170           Si  tau( 170) = (   0.9161530   0.5836380   0.0842790  )
       171           Si  tau( 171) = (   0.8311870   0.3362860   0.1714190  )
       172           Si  tau( 172) = (   0.9169950   0.4198040   0.2514520  )
       173           Si  tau( 173) = (   0.6650630   0.5004180   0.1684010  )
       174           Si  tau( 174) = (   0.7487910   0.5846150   0.2501210  )
       175           Si  tau( 175) = (   0.6587050   0.3345040   0.3361250  )
       176           Si  tau( 176) = (   0.7576520   0.4096100   0.4105450  )
       177           Si  tau( 177) = (   0.8343230   0.5046300   0.3330360  )
       178           Si  tau( 178) = (   0.9186140   0.5842170   0.4174310  )
       179           Si  tau( 179) = (   0.8340970   0.3321800   0.5055990  )
       180           Si  tau( 180) = (   0.9180040   0.4167540   0.5859140  )
       181           Si  tau( 181) = (   0.6944660   0.5197160   0.4954640  )
       182           Si  tau( 182) = (   0.7724450   0.6061030   0.6027450  )
       183           Si  tau( 183) = (   0.6624370   0.3359060   0.6656880  )
       184           Si  tau( 184) = (   0.7443530   0.4202520   0.7506040  )
       185           Si  tau( 185) = (   0.8369430   0.4980480   0.6721290  )
       186           Si  tau( 186) = (   0.9187980   0.5831240   0.7537020  )
       187           Si  tau( 187) = (   0.8277660   0.3353340   0.8334350  )
       188           Si  tau( 188) = (   0.9123640   0.4177200   0.9193850  )
       189           Si  tau( 189) = (   0.6612590   0.5034920   0.8352470  )
       190           Si  tau( 190) = (   0.7474830   0.5844550   0.9175340  )
       191           Si  tau( 191) = (   0.6663310   0.6648750   0.0042025  )
       192           Si  tau( 192) = (   0.7512360   0.7480630   0.0852022  )
       193           Si  tau( 193) = (   0.8336140   0.8322170   0.0013741  )
       194           Si  tau( 194) = (   0.9996400   0.9980830   0.0028567  )
       195           Si  tau( 195) = (   0.8347960   0.6668350   0.1690750  )
       196           Si  tau( 196) = (   0.9185650   0.7495290   0.2516890  )
       197           Si  tau( 197) = (   0.6658260   0.8320910   0.1654190  )
       198           Si  tau( 198) = (   0.7517940   0.9116910   0.2488110  )
       199           Si  tau( 199) = (   0.6651890   0.6673880   0.3328130  )
       200           Si  tau( 200) = (   0.7495390   0.7504600   0.4146060  )
       201           Si  tau( 201) = (   0.8354090   0.8323750   0.3341140  )
       202           Si  tau( 202) = (   0.9178220   0.9172460   0.4167620  )
       203           Si  tau( 203) = (   0.8389640   0.6735680   0.4958330  )
       204           Si  tau( 204) = (   0.9203750   0.7533820   0.5825500  )
       205           Si  tau( 205) = (   0.6691700   0.8325730   0.5001960  )
       206           Si  tau( 206) = (   0.7523740   0.9129140   0.5846030  )
       207           Si  tau( 207) = (   0.6634680   0.6704340   0.6701380  )
       208           Si  tau( 208) = (   0.7521860   0.7487080   0.7516180  )
       209           Si  tau( 209) = (   0.8350080   0.8313750   0.6682480  )
       210           Si  tau( 210) = (   0.9169000   0.9168460   0.7507800  )
       211           Si  tau( 211) = (   0.8333920   0.6654330   0.8353310  )
       212           Si  tau( 212) = (   0.9166790   0.7496340   0.9178130  )
       213           Si  tau( 213) = (   0.6706690   0.8356370   0.8311680  )
       214           Si  tau( 214) = (   0.7520570   0.9156600   0.9170030  )
       215           H   tau( 215) = (   0.5924580   0.4582910   0.5029200  )
       216           H   tau( 216) = (   0.6763240   0.4684670   0.5730130  )
       217           H   tau( 217) = (   0.6491190   0.8237860   0.9848390  )
       218           H   tau( 218) = (   0.5151560   0.8971840   0.8232850  )
       219           H   tau( 219) = (   0.1244180   0.2142050   0.9554310  )
       220           H   tau( 220) = (   0.0042301   0.3278080   0.8433630  )
       221           H   tau( 221) = (   0.5147190   0.8523700   0.4823130  )
       222           H   tau( 222) = (   0.5956090   0.2413740   0.2397030  )
       223           H   tau( 223) = (   0.5171310   0.6387910   0.7788710  )
       224           H   tau( 224) = (   0.7317490   0.0679954   0.5991720  )
       225           H   tau( 225) = (   0.8271740   0.6619270   0.6572930  )
       226           H   tau( 226) = (   0.7368560   0.0585898   0.2775900  )
       227           H   tau( 227) = (   0.4772290   0.6208900   0.8646810  )
       228           H   tau( 228) = (   0.4820890   0.7394130   0.8171210  )
       229           H   tau( 229) = (   0.7206430   0.0658391   0.0254582  )
       230           H   tau( 230) = (   0.8946130   0.2339500   0.9395020  )
       231           H   tau( 231) = (   0.8140850   0.3546250   0.3495630  )

   Crystallographic axes

     site n.     atom                  positions (cryst. coord.)
         1           Si  tau(   1) = (  0.0799786  0.0809208  0.0889347  )
         2           Si  tau(   2) = (  0.1763730  0.1554780  0.0144200  )
         3           Si  tau(   3) = (  0.2514310  0.2511150  0.0888725  )
         4           Si  tau(   4) = (  0.1648910  0.9984720  0.1704440  )
         5           Si  tau(   5) = (  0.2476600  0.0833440  0.2524480  )
         6           Si  tau(   6) = (  0.9977570  0.1662270  0.1715270  )
         7           Si  tau(   7) = (  0.0812830  0.2505950  0.2529780  )
         8           Si  tau(   8) = (  0.0001565  0.0009871  0.3347540  )
         9           Si  tau(   9) = (  0.0825730  0.0835170  0.4188940  )
        10           Si  tau(  10) = (  0.1647630  0.1672490  0.3355090  )
        11           Si  tau(  11) = (  0.2475790  0.2511180  0.4180010  )
        12           Si  tau(  12) = (  0.1655060  0.9989310  0.5007290  )
        13           Si  tau(  13) = (  0.2461780  0.0815881  0.5851330  )
        14           Si  tau(  14) = (  0.9997890  0.1663640  0.5028290  )
        15           Si  tau(  15) = (  0.0822163  0.2506150  0.5852900  )
        16           Si  tau(  16) = (  1.0002800 -0.0000126  0.6680750  )
        17           Si  tau(  17) = (  0.0831392  0.0833271  0.7510250  )
        18           Si  tau(  18) = (  0.1650330  0.1667550  0.6674830  )
        19           Si  tau(  19) = (  0.2483580  0.2485970  0.7514970  )
        20           Si  tau(  20) = (  0.1641100  0.0004097  0.8362900  )
        21           Si  tau(  21) = (  0.2505550  0.0803561  0.9187130  )
        22           Si  tau(  22) = (  0.9954470  0.1624210  0.8321860  )
        23           Si  tau(  23) = (  0.0600807  0.2733540  0.8971330  )
        24           Si  tau(  24) = (  0.9950350  0.3376730  0.0084591  )
        25           Si  tau(  25) = (  0.0848645  0.4191780  0.0853212  )
        26           Si  tau(  26) = (  0.1675850  0.5021820  0.0015723  )
        27           Si  tau(  27) = (  0.2512750  0.5849200  0.0841640  )
        28           Si  tau(  28) = (  0.1646260  0.3333170  0.1689540  )
        29           Si  tau(  29) = (  0.2479220  0.4168840  0.2512670  )
        30           Si  tau(  30) = (  0.0008253  0.5018120  0.1675300  )
        31           Si  tau(  31) = (  0.0841924  0.5841990  0.2507930  )
        32           Si  tau(  32) = (  0.9978400  0.3344760  0.3356150  )
        33           Si  tau(  33) = (  0.0821254  0.4170870  0.4181840  )
        34           Si  tau(  34) = (  0.1652480  0.4999360  0.3347460  )
        35           Si  tau(  35) = (  0.2481780  0.5828510  0.4181840  )
        36           Si  tau(  36) = (  0.1648680  0.3341170  0.5017440  )
        37           Si  tau(  37) = (  0.2482430  0.4174070  0.5846270  )
        38           Si  tau(  38) = (  0.0000729  0.5006300  0.5017550  )
        39           Si  tau(  39) = (  0.0832311  0.5853470  0.5835140  )
        40           Si  tau(  40) = (  1.0002000  0.3336080  0.6700460  )
        41           Si  tau(  41) = (  0.0839153  0.4205050  0.7495430  )
        42           Si  tau(  42) = (  0.1666480  0.5033230  0.6660480  )
        43           Si  tau(  43) = (  0.2495740  0.5843310  0.7515040  )
        44           Si  tau(  44) = (  0.1694130  0.3385130  0.8305790  )
        45           Si  tau(  45) = (  0.2499810  0.4180710  0.9187640  )
        46           Si  tau(  46) = (  0.0007262  0.4993480  0.8375360  )
        47           Si  tau(  47) = (  0.0836360  0.5842220  0.9188210  )
        48           Si  tau(  48) = (  0.9997520  0.6669060  0.0015226  )
        49           Si  tau(  49) = (  0.0831415  0.7498720  0.0845623  )
        50           Si  tau(  50) = (  0.1657310  0.8328880  0.0008579  )
        51           Si  tau(  51) = (  0.2471560  0.9157380  0.0858515  )
        52           Si  tau(  52) = (  0.1670380  0.6670270  0.1672060  )
        53           Si  tau(  53) = (  0.2493750  0.7495440  0.2514120  )
        54           Si  tau(  54) = (  0.0004398  0.8328850  0.1679080  )
        55           Si  tau(  55) = (  0.0820604  0.9155520  0.2529460  )
        56           Si  tau(  56) = (  0.0021330  0.6670020  0.3348000  )
        57           Si  tau(  57) = (  0.0848579  0.7500780  0.4184390  )
        58           Si  tau(  58) = (  0.1666020  0.8326960  0.3346640  )
        59           Si  tau(  59) = (  0.2491000  0.9152360  0.4184900  )
        60           Si  tau(  60) = (  0.1680660  0.6678360  0.5022130  )
        61           Si  tau(  61) = (  0.2521920  0.7502690  0.5860380  )
        62           Si  tau(  62) = (  0.0029714  0.8358830  0.4996080  )
        63           Si  tau(  63) = (  0.0838322  0.9170480  0.5850610  )
        64           Si  tau(  64) = (  0.9992700  0.6668320  0.6672650  )
        65           Si  tau(  65) = (  0.0827264  0.7499100  0.7507430  )
        66           Si  tau(  66) = (  0.1664130  0.8327720  0.6678060  )
        67           Si  tau(  67) = (  0.2458240  0.9181520  0.7515740  )
        68           Si  tau(  68) = (  0.1657860  0.6670390  0.8343180  )
        69           Si  tau(  69) = (  0.2486160  0.7504100  0.9169660  )
        70           Si  tau(  70) = (  0.9992720  0.8331040  0.8342470  )
        71           Si  tau(  71) = (  0.0819092  0.9156970  0.9184520  )
        72           Si  tau(  72) = (  0.3313030  0.9991440  0.0046654  )
        73           Si  tau(  73) = (  0.4142450  0.0842347  0.0857382  )
        74           Si  tau(  74) = (  0.4961960  0.1652820  0.9996410  )
        75           Si  tau(  75) = (  0.5787090  0.2515050  0.0798999  )
        76           Si  tau(  76) = (  0.4976650  0.0005325  0.1675500  )
        77           Si  tau(  77) = (  0.5787360  0.0804040  0.2539690  )
        78           Si  tau(  78) = (  0.3328510  0.1665350  0.1711080  )
        79           Si  tau(  79) = (  0.4167020  0.2502810  0.2519230  )
        80           Si  tau(  80) = (  0.3305020  0.9992170  0.3349830  )
        81           Si  tau(  81) = (  0.4109930  0.0844069  0.4181060  )
        82           Si  tau(  82) = (  0.4965870  0.1648800  0.3355710  )
        83           Si  tau(  83) = (  0.5784700  0.2483600  0.4188220  )
        84           Si  tau(  84) = (  0.4945260  0.0043717  0.5023570  )
        85           Si  tau(  85) = (  0.5764830  0.0868123  0.5852070  )
        86           Si  tau(  86) = (  0.3267470  0.1648870  0.5014750  )
        87           Si  tau(  87) = (  0.4078680  0.2446960  0.5875940  )
        88           Si  tau(  88) = (  0.3297280 -0.0007968  0.6684730  )
        89           Si  tau(  89) = (  0.4117640  0.0821270  0.7520360  )
        90           Si  tau(  90) = (  0.4949500  0.1667330  0.6708900  )
        91           Si  tau(  91) = (  0.5799280  0.2519750  0.7497460  )
        92           Si  tau(  92) = (  0.4943230  0.9986980  0.8356910  )
        93           Si  tau(  93) = (  0.5783810  0.0828631  0.9154150  )
        94           Si  tau(  94) = (  0.3309750  0.1665390  0.8363300  )
        95           Si  tau(  95) = (  0.4147400  0.2504890  0.9177030  )
        96           Si  tau(  96) = (  0.3313480  0.3329650  0.0012282  )
        97           Si  tau(  97) = (  0.4119040  0.4176270  0.0849904  )
        98           Si  tau(  98) = (  0.4974000  0.4989020  0.0037099  )
        99           Si  tau(  99) = (  0.5806430  0.5827540  0.0858766  )
       100           Si  tau( 100) = (  0.4964330  0.3338400  0.1651060  )
       101           Si  tau( 101) = (  0.5799670  0.4165080  0.2487810  )
       102           Si  tau( 102) = (  0.3316300  0.5012140  0.1696150  )
       103           Si  tau( 103) = (  0.4163820  0.5824450  0.2539050  )
       104           Si  tau( 104) = (  0.3311460  0.3332600  0.3336010  )
       105           Si  tau( 105) = (  0.4129460  0.4160150  0.4177160  )
       106           Si  tau( 106) = (  0.5004820  0.4978090  0.3367170  )
       107           Si  tau( 107) = (  0.5866660  0.5823800  0.4183970  )
       108           Si  tau( 108) = (  0.4860540  0.3227210  0.4988200  )
       109           Si  tau( 109) = (  0.5688420  0.4066360  0.5805520  )
       110           Si  tau( 110) = (  0.3315100  0.5001630  0.5014410  )
       111           Si  tau( 111) = (  0.4155310  0.5842920  0.5829290  )
       112           Si  tau( 112) = (  0.3297410  0.3334980  0.6685780  )
       113           Si  tau( 113) = (  0.4145650  0.4154760  0.7507990  )
       114           Si  tau( 114) = (  0.4954150  0.4975220  0.6639430  )
       115           Si  tau( 115) = (  0.4978310  0.3341040  0.8347780  )
       116           Si  tau( 116) = (  0.5796030  0.4184300  0.9177290  )
       117           Si  tau( 117) = (  0.3325080  0.4999260  0.8333910  )
       118           Si  tau( 118) = (  0.4137580  0.5803000  0.9206440  )
       119           Si  tau( 119) = (  0.3334900  0.6687390  0.9994900  )
       120           Si  tau( 120) = (  0.4155320  0.7497070  0.0854531  )
       121           Si  tau( 121) = (  0.4962820  0.8362610  0.0036995  )
       122           Si  tau( 122) = (  0.5828050  0.9192520  0.0851855  )
       123           Si  tau( 123) = (  0.4978460  0.6659420  0.1687320  )
       124           Si  tau( 124) = (  0.5826130  0.7497740  0.2489680  )
       125           Si  tau( 125) = (  0.3316490  0.8328690  0.1677350  )
       126           Si  tau( 126) = (  0.4136470  0.9175560  0.2499670  )
       127           Si  tau( 127) = (  0.3313980  0.6655160  0.3350700  )
       128           Si  tau( 128) = (  0.4166520  0.7485900  0.4161640  )
       129           Si  tau( 129) = (  0.4970020  0.8319780  0.3297730  )
       130           Si  tau( 130) = (  0.5708610  0.9078150  0.4274470  )
       131           Si  tau( 131) = (  0.5011580  0.6652740  0.4999250  )
       132           Si  tau( 132) = (  0.5840440  0.7502510  0.5812850  )
       133           Si  tau( 133) = (  0.3344510  0.8326160  0.5005770  )
       134           Si  tau( 134) = (  0.4139430  0.9184850  0.5841310  )
       135           Si  tau( 135) = (  0.3357670  0.6665550  0.6701760  )
       136           Si  tau( 136) = (  0.4157480  0.7555590  0.7504360  )
       137           Si  tau( 137) = (  0.5001960  0.8344670  0.6628000  )
       138           Si  tau( 138) = (  0.5832590  0.9161400  0.7490050  )
       139           Si  tau( 139) = (  0.5815010  0.5797960  0.7435350  )
       140           Si  tau( 140) = (  0.5969980  0.7660940  0.9317840  )
       141           Si  tau( 141) = (  0.3288170  0.8355040  0.8333070  )
       142           Si  tau( 142) = (  0.4110380  0.9160540  0.9200600  )
       143           Si  tau( 143) = (  0.6635780  0.9980370  0.9948080  )
       144           Si  tau( 144) = (  0.8329380  0.9981120  0.1692630  )
       145           Si  tau( 145) = (  0.8396300  0.1782540  0.9906000  )
       146           Si  tau( 146) = (  0.9139980  0.2506490  0.0904911  )
       147           Si  tau( 147) = (  0.9154780  0.9159610  0.0859046  )
       148           Si  tau( 148) = (  0.9131350  0.0821973  0.2535380  )
       149           Si  tau( 149) = (  0.6478920  0.1848490  0.1855330  )
       150           Si  tau( 150) = (  0.7509060  0.2539040  0.2590590  )
       151           Si  tau( 151) = (  0.6753410  0.0048228  0.3289510  )
       152           Si  tau( 152) = (  0.7488520  0.0829323  0.4258120  )
       153           Si  tau( 153) = (  0.8317830  0.1654340  0.3406160  )
       154           Si  tau( 154) = (  0.9166090  0.2503410  0.4205570  )
       155           Si  tau( 155) = (  0.8350700  0.9976590  0.5032710  )
       156           Si  tau( 156) = (  0.9158200  0.0833546  0.5862280  )
       157           Si  tau( 157) = (  0.6623620  0.1679460  0.5040100  )
       158           Si  tau( 158) = (  0.7468070  0.2507880  0.5861940  )
       159           Si  tau( 159) = (  0.6762060  0.0116773  0.6567670  )
       160           Si  tau( 160) = (  0.7500860  0.0854955  0.7552690  )
       161           Si  tau( 161) = (  0.8305980  0.1669870  0.6679820  )
       162           Si  tau( 162) = (  0.9130880  0.2506800  0.7512990  )
       163           Si  tau( 163) = (  0.8335700 -0.0006416  0.8345380  )
       164           Si  tau( 164) = (  0.9157780  0.0796374  0.9194620  )
       165           Si  tau( 165) = (  0.6610220  0.1668120  0.8328620  )
       166           Si  tau( 166) = (  0.7419330  0.2518930  0.9154350  )
       167           Si  tau( 167) = (  0.6635220  0.3360980  0.0007102  )
       168           Si  tau( 168) = (  0.7479570  0.4174280  0.0852000  )
       169           Si  tau( 169) = (  0.8297800  0.5021600  0.0018868  )
       170           Si  tau( 170) = (  0.9161530  0.5836380  0.0842790  )
       171           Si  tau( 171) = (  0.8311870  0.3362860  0.1714190  )
       172           Si  tau( 172) = (  0.9169950  0.4198040  0.2514520  )
       173           Si  tau( 173) = (  0.6650630  0.5004180  0.1684010  )
       174           Si  tau( 174) = (  0.7487910  0.5846150  0.2501210  )
       175           Si  tau( 175) = (  0.6587050  0.3345040  0.3361250  )
       176           Si  tau( 176) = (  0.7576520  0.4096100  0.4105450  )
       177           Si  tau( 177) = (  0.8343230  0.5046300  0.3330360  )
       178           Si  tau( 178) = (  0.9186140  0.5842170  0.4174310  )
       179           Si  tau( 179) = (  0.8340970  0.3321800  0.5055990  )
       180           Si  tau( 180) = (  0.9180040  0.4167540  0.5859140  )
       181           Si  tau( 181) = (  0.6944660  0.5197160  0.4954640  )
       182           Si  tau( 182) = (  0.7724450  0.6061030  0.6027450  )
       183           Si  tau( 183) = (  0.6624370  0.3359060  0.6656880  )
       184           Si  tau( 184) = (  0.7443530  0.4202520  0.7506040  )
       185           Si  tau( 185) = (  0.8369430  0.4980480  0.6721290  )
       186           Si  tau( 186) = (  0.9187980  0.5831240  0.7537020  )
       187           Si  tau( 187) = (  0.8277660  0.3353340  0.8334350  )
       188           Si  tau( 188) = (  0.9123640  0.4177200  0.9193850  )
       189           Si  tau( 189) = (  0.6612590  0.5034920  0.8352470  )
       190           Si  tau( 190) = (  0.7474830  0.5844550  0.9175340  )
       191           Si  tau( 191) = (  0.6663310  0.6648750  0.0042025  )
       192           Si  tau( 192) = (  0.7512360  0.7480630  0.0852022  )
       193           Si  tau( 193) = (  0.8336140  0.8322170  0.0013741  )
       194           Si  tau( 194) = (  0.9996400  0.9980830  0.0028567  )
       195           Si  tau( 195) = (  0.8347960  0.6668350  0.1690750  )
       196           Si  tau( 196) = (  0.9185650  0.7495290  0.2516890  )
       197           Si  tau( 197) = (  0.6658260  0.8320910  0.1654190  )
       198           Si  tau( 198) = (  0.7517940  0.9116910  0.2488110  )
       199           Si  tau( 199) = (  0.6651890  0.6673880  0.3328130  )
       200           Si  tau( 200) = (  0.7495390  0.7504600  0.4146060  )
       201           Si  tau( 201) = (  0.8354090  0.8323750  0.3341140  )
       202           Si  tau( 202) = (  0.9178220  0.9172460  0.4167620  )
       203           Si  tau( 203) = (  0.8389640  0.6735680  0.4958330  )
       204           Si  tau( 204) = (  0.9203750  0.7533820  0.5825500  )
       205           Si  tau( 205) = (  0.6691700  0.8325730  0.5001960  )
       206           Si  tau( 206) = (  0.7523740  0.9129140  0.5846030  )
       207           Si  tau( 207) = (  0.6634680  0.6704340  0.6701380  )
       208           Si  tau( 208) = (  0.7521860  0.7487080  0.7516180  )
       209           Si  tau( 209) = (  0.8350080  0.8313750  0.6682480  )
       210           Si  tau( 210) = (  0.9169000  0.9168460  0.7507800  )
       211           Si  tau( 211) = (  0.8333920  0.6654330  0.8353310  )
       212           Si  tau( 212) = (  0.9166790  0.7496340  0.9178130  )
       213           Si  tau( 213) = (  0.6706690  0.8356370  0.8311680  )
       214           Si  tau( 214) = (  0.7520570  0.9156600  0.9170030  )
       215           H   tau( 215) = (  0.5924580  0.4582910  0.5029200  )
       216           H   tau( 216) = (  0.6763240  0.4684670  0.5730130  )
       217           H   tau( 217) = (  0.6491190  0.8237860  0.9848390  )
       218           H   tau( 218) = (  0.5151560  0.8971840  0.8232850  )
       219           H   tau( 219) = (  0.1244180  0.2142050  0.9554310  )
       220           H   tau( 220) = (  0.0042301  0.3278080  0.8433630  )
       221           H   tau( 221) = (  0.5147190  0.8523700  0.4823130  )
       222           H   tau( 222) = (  0.5956090  0.2413740  0.2397030  )
       223           H   tau( 223) = (  0.5171310  0.6387910  0.7788710  )
       224           H   tau( 224) = (  0.7317490  0.0679954  0.5991720  )
       225           H   tau( 225) = (  0.8271740  0.6619270  0.6572930  )
       226           H   tau( 226) = (  0.7368560  0.0585898  0.2775900  )
       227           H   tau( 227) = (  0.4772290  0.6208900  0.8646810  )
       228           H   tau( 228) = (  0.4820890  0.7394130  0.8171210  )
       229           H   tau( 229) = (  0.7206430  0.0658391  0.0254582  )
       230           H   tau( 230) = (  0.8946130  0.2339500  0.9395020  )
       231           H   tau( 231) = (  0.8140850  0.3546250  0.3495630  )

     number of k points=     8  Marzari-Vanderbilt smearing, width (Ry)=  0.0500
                       cart. coord. in units 2pi/alat
        k(    1) = (   0.0000000   0.0000000   0.0000000), wk =   0.2500000
        k(    2) = (   0.0000000   0.0000000  -0.5000000), wk =   0.2500000
        k(    3) = (   0.0000000  -0.5000000  -0.5000000), wk =   0.2500000
        k(    4) = (  -0.5000000  -0.5000000  -0.5000000), wk =   0.2500000
        k(    5) = (  -0.5000000   0.0000000   0.0000000), wk =   0.2500000
        k(    6) = (   0.0000000  -0.5000000   0.0000000), wk =   0.2500000
        k(    7) = (  -0.5000000   0.0000000   0.5000000), wk =   0.2500000
        k(    8) = (  -0.5000000   0.5000000   0.0000000), wk =   0.2500000

                       cryst. coord.
        k(    1) = (   0.0000000   0.0000000   0.0000000), wk =   0.2500000
        k(    2) = (   0.0000000   0.0000000  -0.5000000), wk =   0.2500000
        k(    3) = (   0.0000000  -0.5000000  -0.5000000), wk =   0.2500000
        k(    4) = (  -0.5000000  -0.5000000  -0.5000000), wk =   0.2500000
        k(    5) = (  -0.5000000   0.0000000   0.0000000), wk =   0.2500000
        k(    6) = (   0.0000000  -0.5000000   0.0000000), wk =   0.2500000
        k(    7) = (  -0.5000000   0.0000000   0.5000000), wk =   0.2500000
        k(    8) = (  -0.5000000   0.5000000   0.0000000), wk =   0.2500000

     Dense  grid:  1078507 G-vectors     FFT dimensions: ( 128, 128, 128)

     Dynamical RAM for                 wfc:     134.75 MB

     Dynamical RAM for     wfc (w. buffer):    1212.75 MB

     Dynamical RAM for           str. fact:       4.11 MB

     Dynamical RAM for           local pot:       0.00 MB

     Dynamical RAM for          nlocal pot:     275.16 MB

     Dynamical RAM for                qrad:       1.75 MB

     Dynamical RAM for          rho,v,vnew:      12.17 MB

     Dynamical RAM for               rhoin:       4.06 MB

     Dynamical RAM for            rho*nmix:      32.91 MB

     Dynamical RAM for           G-vectors:       8.74 MB

     Dynamical RAM for          h,s,v(r/c):     201.11 MB

     Dynamical RAM for          <psi|beta>:       8.56 MB

     Dynamical RAM for                 psi:     539.00 MB

     Dynamical RAM for                hpsi:     539.00 MB

     Dynamical RAM for      wfcinit/wfcrot:     466.45 MB

     Estimated static dynamical RAM per process >       1.53 GB

     Estimated max dynamical RAM per process >       2.79 GB

     Estimated total dynamical RAM >      22.31 GB

     Initial potential from superposition of free atoms

     starting charge  872.88015, renormalised to  873.00000
     Starting wfc are  873 randomized atomic wfcs

     total cpu time spent up to now is      276.8 secs

     Self-consistent Calculation

     iteration #  1     ecut=    42.00 Ry     beta= 0.30
     Davidson diagonalization with overlap
     ethr =  1.00E-02,  avg # of iterations =  3.1

     Threshold (ethr) on eigenvalues was too large:
     Diagonalizing with lowered threshold

     Davidson diagonalization with overlap
     ethr =  8.61E-04,  avg # of iterations =  2.8

     total cpu time spent up to now is     1397.3 secs

     total energy              =   -1704.08351534 Ry
     Harris-Foulkes estimate   =   -1705.42982382 Ry
     estimated scf accuracy    <       7.38002594 Ry

     iteration #  2     ecut=    42.00 Ry     beta= 0.30
     Davidson diagonalization with overlap
     ethr =  8.45E-04,  avg # of iterations =  3.8

     total cpu time spent up to now is     1836.7 secs

     total energy              =   -1703.63329176 Ry
     Harris-Foulkes estimate   =   -1704.43299551 Ry
     estimated scf accuracy    <       3.55276975 Ry

     iteration #  3     ecut=    42.00 Ry     beta= 0.30
     Davidson diagonalization with overlap
     ethr =  4.07E-04,  avg # of iterations =  6.2

     total cpu time spent up to now is     2486.2 secs

     total energy              =   -1703.51549271 Ry
     Harris-Foulkes estimate   =   -1704.36945101 Ry
     estimated scf accuracy    <       4.18095655 Ry

     iteration #  4     ecut=    42.00 Ry     beta= 0.30
     Davidson diagonalization with overlap
     ethr =  4.07E-04,  avg # of iterations =  4.6

     total cpu time spent up to now is     3051.5 secs

     total energy              =   -1703.76266630 Ry
     Harris-Foulkes estimate   =   -1703.94216646 Ry
     estimated scf accuracy    <       0.79357842 Ry

     iteration #  5     ecut=    42.00 Ry     beta= 0.30
     Davidson diagonalization with overlap
     ethr =  9.09E-05,  avg # of iterations =  7.4

     total cpu time spent up to now is     3718.8 secs

     total energy              =   -1703.84823233 Ry
     Harris-Foulkes estimate   =   -1703.89137409 Ry
     estimated scf accuracy    <       0.23042878 Ry

     iteration #  6     ecut=    42.00 Ry     beta= 0.30
     Davidson diagonalization with overlap
     ethr =  2.64E-05,  avg # of iterations =  7.2

     total cpu time spent up to now is     4347.3 secs

     total energy              =   -1703.86545196 Ry
     Harris-Foulkes estimate   =   -1703.88051951 Ry
     estimated scf accuracy    <       0.07733600 Ry

     iteration #  7     ecut=    42.00 Ry     beta= 0.30
     Davidson diagonalization with overlap
     ethr =  8.86E-06,  avg # of iterations = 10.1

     total cpu time spent up to now is     5044.3 secs

     total energy              =   -1703.87269124 Ry
     Harris-Foulkes estimate   =   -1703.87713688 Ry
     estimated scf accuracy    <       0.02652707 Ry

     iteration #  8     ecut=    42.00 Ry     beta= 0.30
     Davidson diagonalization with overlap
     ethr =  3.04E-06,  avg # of iterations =  7.4

     total cpu time spent up to now is     5633.4 secs

     total energy              =   -1703.87413778 Ry
     Harris-Foulkes estimate   =   -1703.87611716 Ry
     estimated scf accuracy    <       0.01060982 Ry

     iteration #  9     ecut=    42.00 Ry     beta= 0.30
     Davidson diagonalization with overlap
     ethr =  1.22E-06,  avg # of iterations =  6.2

     total cpu time spent up to now is     6175.2 secs

     total energy              =   -1703.87502499 Ry
     Harris-Foulkes estimate   =   -1703.87589661 Ry
     estimated scf accuracy    <       0.00565796 Ry

     iteration # 10     ecut=    42.00 Ry     beta= 0.30
     Davidson diagonalization with overlap
     ethr =  6.48E-07,  avg # of iterations =  3.0

     total cpu time spent up to now is     6614.6 secs

     total energy              =   -1703.87543047 Ry
     Harris-Foulkes estimate   =   -1703.87560167 Ry
     estimated scf accuracy    <       0.00092021 Ry

     iteration # 11     ecut=    42.00 Ry     beta= 0.30
     Davidson diagonalization with overlap
     ethr =  1.05E-07,  avg # of iterations =  3.2

     total cpu time spent up to now is     7096.1 secs

     total energy              =   -1703.87551347 Ry
     Harris-Foulkes estimate   =   -1703.87562856 Ry
     estimated scf accuracy    <       0.00064142 Ry

     iteration # 12     ecut=    42.00 Ry     beta= 0.30
     Davidson diagonalization with overlap
     ethr =  7.35E-08,  avg # of iterations =  3.0

     total cpu time spent up to now is     7545.3 secs

     total energy              =   -1703.87557593 Ry
     Harris-Foulkes estimate   =   -1703.87559579 Ry
     estimated scf accuracy    <       0.00010446 Ry

     iteration # 13     ecut=    42.00 Ry     beta= 0.30
     Davidson diagonalization with overlap
     ethr =  1.20E-08,  avg # of iterations =  3.2

     total cpu time spent up to now is     8030.8 secs

     total energy              =   -1703.87558975 Ry
     Harris-Foulkes estimate   =   -1703.87559316 Ry
     estimated scf accuracy    <       0.00002509 Ry

     iteration # 14     ecut=    42.00 Ry     beta= 0.30
     Davidson diagonalization with overlap
     ethr =  2.87E-09,  avg # of iterations =  3.1

     total cpu time spent up to now is     8525.5 secs

     total energy              =   -1703.87559318 Ry
     Harris-Foulkes estimate   =   -1703.87559486 Ry
     estimated scf accuracy    <       0.00001386 Ry

     iteration # 15     ecut=    42.00 Ry     beta= 0.30
     Davidson diagonalization with overlap
     ethr =  1.59E-09,  avg # of iterations =  2.4

     total cpu time spent up to now is     8966.7 secs

     total energy              =   -1703.87559535 Ry
     Harris-Foulkes estimate   =   -1703.87559481 Ry
     estimated scf accuracy    <       0.00000201 Ry

     iteration # 16     ecut=    42.00 Ry     beta= 0.30
     Davidson diagonalization with overlap
     ethr =  2.31E-10,  avg # of iterations =  3.0

     total cpu time spent up to now is     9458.2 secs

     total energy              =   -1703.87559577 Ry
     Harris-Foulkes estimate   =   -1703.87559568 Ry
     estimated scf accuracy    <       0.00000140 Ry

     iteration # 17     ecut=    42.00 Ry     beta= 0.30
     Davidson diagonalization with overlap
     ethr =  1.60E-10,  avg # of iterations =  3.0

     total cpu time spent up to now is     9916.2 secs

     total energy              =   -1703.87559609 Ry
     Harris-Foulkes estimate   =   -1703.87559601 Ry
     estimated scf accuracy    <       0.00000089 Ry

     iteration # 18     ecut=    42.00 Ry     beta= 0.30
     Davidson diagonalization with overlap
     ethr =  1.02E-10,  avg # of iterations =  3.0

     total cpu time spent up to now is    10366.2 secs

     total energy              =   -1703.87559625 Ry
     Harris-Foulkes estimate   =   -1703.87559619 Ry
     estimated scf accuracy    <       0.00000023 Ry

     iteration # 19     ecut=    42.00 Ry     beta= 0.30
     Davidson diagonalization with overlap
     ethr =  2.62E-11,  avg # of iterations =  3.4

     total cpu time spent up to now is    10844.3 secs

     total energy              =   -1703.87559630 Ry
     Harris-Foulkes estimate   =   -1703.87559630 Ry
     estimated scf accuracy    <       0.00000025 Ry

     iteration # 20     ecut=    42.00 Ry     beta= 0.30
     Davidson diagonalization with overlap
     ethr =  2.62E-11,  avg # of iterations =  3.0

     total cpu time spent up to now is    11283.4 secs

     total energy              =   -1703.87559634 Ry
     Harris-Foulkes estimate   =   -1703.87559632 Ry
     estimated scf accuracy    <       0.00000004 Ry

     iteration # 21     ecut=    42.00 Ry     beta= 0.30
     Davidson diagonalization with overlap
     ethr =  4.25E-12,  avg # of iterations =  3.0

     total cpu time spent up to now is    11750.7 secs

     total energy              =   -1703.87559634 Ry
     Harris-Foulkes estimate   =   -1703.87559634 Ry
     estimated scf accuracy    <       0.00000001 Ry

     iteration # 22     ecut=    42.00 Ry     beta= 0.30
     Davidson diagonalization with overlap
     ethr =  1.25E-12,  avg # of iterations =  3.0

     total cpu time spent up to now is    12215.6 secs

     End of self-consistent calculation

          k = 0.0000 0.0000 0.0000 (134683 PWs)   bands (ev):

    -5.9334  -5.6092  -5.4885  -5.4543  -5.4173  -5.3857  -5.3726  -5.1513
    -5.0828  -5.0488  -5.0332  -5.0047  -4.9706  -4.9377  -4.9103  -4.8916
    -4.8803  -4.8549  -4.8315  -4.6638  -4.5701  -4.5390  -4.5193  -4.5079
    -4.4972  -4.4644  -4.4376  -4.1646  -4.1338  -4.0731  -4.0253  -3.9839
    -3.9315  -3.8658  -3.8216  -3.7539  -3.7411  -3.7103  -3.6989  -3.6810
    -3.6565  -3.6364  -3.6127  -3.6063  -3.5867  -3.5841  -3.5740  -3.5654
    -3.5647  -3.5610  -3.5572  -3.5447  -3.5347  -3.5247  -3.5018  -3.4819
    -3.4565  -3.4466  -3.4409  -3.4341  -3.4254  -3.4078  -3.4008  -3.3976
    -3.3919  -3.3758  -3.3734  -3.3679  -3.3596  -3.3572  -3.3449  -3.3368
    -3.3314  -3.3284  -3.3235  -3.3148  -3.3056  -3.2936  -3.2766  -3.0773
    -2.9436  -2.6999  -2.6461  -2.6343  -2.6202  -2.6158  -2.6057  -2.5923
    -2.5851  -2.5804  -2.5737  -2.4797  -2.3942  -2.0620  -1.9903  -1.7891
    -1.7570  -1.7342  -1.7204  -1.6866  -1.6742  -1.6701  -1.6639  -1.6483
    -1.6456  -1.6352  -1.6225  -1.6175  -1.6109  -1.6035  -1.5959  -1.5924
    -1.5896  -1.5804  -1.5751  -1.5706  -1.5650  -1.5512  -1.5431  -1.5385
    -1.5133  -1.3833  -1.2267  -1.1595  -1.0900  -0.9548  -0.8702  -0.8268
    -0.8012  -0.7938  -0.7396  -0.7050  -0.6942  -0.6675  -0.6621  -0.6487
    -0.6350  -0.6127  -0.5988  -0.5873  -0.5847  -0.5534  -0.5348  -0.5271
    -0.5048  -0.4956  -0.4886  -0.4872  -0.4794  -0.4749  -0.4570  -0.4560
    -0.4501  -0.4066  -0.3842  -0.3348  -0.3028  -0.1770  -0.0028   0.1226
     0.2780   0.3137   0.3346   0.3430   0.3593   0.3701   0.4025   0.4116
     0.4230   0.4287   0.4332   0.4399   0.4439   0.4514   0.4606   0.4629
     0.4691   0.4799   0.4971   0.5043   0.5103   0.5705   0.5885   0.6446
     0.6901   0.7252   0.7550   0.7765   0.7950   0.8280   0.8534   0.9457
     0.9583   1.0463   1.0658   1.0882   1.1323   1.2200   1.2379   1.2714
     1.3685   1.4538   1.5964   1.6586   1.6887   1.7088   1.7128   1.7318
     1.7462   1.7783   1.8852   1.9280   1.9586   2.0211   2.0591   2.0857
     2.1369   2.1539   2.1818   2.1943   2.2491   2.3145   2.3455   2.3481
     2.3641   2.3786   2.3867   2.3902   2.3958   2.4002   2.4132   2.4192
     2.4245   2.4403   2.4467   2.4500   2.4543   2.4627   2.4744   2.4757
     2.4889   2.4918   2.4984   2.5001   2.5056   2.5116   2.5138   2.5209
     2.5293   2.5311   2.5365   2.5415   2.5478   2.5530   2.5571   2.5597
     2.5711   2.5817   2.5857   2.5884   2.5944   2.6102   2.6494   2.6598
     2.6795   2.7014   2.7626   2.7780   2.8651   2.9797   3.0216   3.0667
     3.1039   3.1460   3.1668   3.1714   3.1986   3.2168   3.2245   3.2474
     3.2530   3.2573   3.2738   3.2801   3.2882   3.2977   3.3057   3.3151
     3.3241   3.3330   3.3343   3.3523   3.3555   3.3681   3.3713   3.3841
     3.3937   3.4027   3.4319   3.4756   3.4829   3.4999   3.5196   3.5517
     3.5640   3.5693   3.5831   3.6157   3.6222   3.6375   3.6436   3.6599
     3.6668   3.6762   3.6869   3.6921   3.6944   3.7014   3.7072   3.7177
     3.7228   3.7329   3.7409   3.7426   3.7515   3.7558   3.7628   3.7698
     3.7715   3.7809   3.7924   3.7943   3.8057   3.8114   3.8225   3.8252
     3.8297   3.8397   3.8415   3.8547   3.8664   3.8975   3.9123   3.9248
     3.9389   3.9411   3.9630   3.9700   3.9871   3.9927   3.9964   4.0073
     4.0113   4.0165   4.0263   4.0370   4.0492   4.0535   4.0670   4.0750
     4.1013   4.1302   4.1656   4.1929   4.2173   4.2435   4.2698   4.2754
     4.2881   4.2936   4.3035   4.3106   4.3137   4.3268   4.3315   4.3342
     4.3444   4.3486   4.3563   4.3624   4.3729   4.3949   4.3977   4.4024
     4.4326   4.4422   4.4773   4.5322   4.6817   4.6946   4.7809   4.8111
     4.8338   4.8634   4.8747   4.8972   4.9176   4.9226   4.9384   4.9589
     4.9787   5.0021   5.0194   5.0396   5.0470   5.0536   5.0696   5.0769
     5.0984   5.1044   5.1079   5.1185   5.1253   5.1479   5.1518   5.1636
     5.1933   5.2410   5.2649   5.3853   5.4380   5.4575   5.4678   5.4958
     5.5024   5.5141   5.5184   5.5315   5.5614   5.5638   5.5808   5.6676
     5.8943   5.9430   6.0615   6.0725   6.2036   6.2718   6.5733   6.7892
     6.8393   6.8672   6.9000   6.9163   6.9312   7.0061   7.0212   7.1076
     7.1619   7.1908   7.2851   7.4478   7.5332   7.5600   7.6444   7.6485
     7.6663   7.6785   7.6941   7.6948   7.7258   7.7427   7.7649   7.7781
     7.7819   7.7956   7.8081   7.8220   7.8446   7.8585   7.8663   7.8789
     7.8871   7.9078   7.9147   7.9284   7.9616   7.9824   8.0071   8.0231
     8.0407   8.0604   8.0807   8.0834   8.1026   8.1134   8.1217   8.1297
     8.1379   8.1405   8.1443   8.1710   8.1902   8.2086   8.2201   8.2350
     8.2410   8.2624   8.2997   8.3157   8.3272   8.4228   8.4443   8.4888
     8.5114   8.5388   8.5575   8.5702   8.6375   8.6611   8.6767   8.7237
     8.7294   8.7386   8.7501   8.7785   8.7916   8.8158   8.8224   8.8335
     8.8422   8.8480   8.8489   8.8555

     occupation numbers 
     1.0000   1.0000   1.0000   1.0000   1.0000   1.0000   1.0000   1.0000
     1.0000   1.0000   1.0000   1.0000   1.0000   1.0000   1.0000   1.0000
     1.0000   1.0000   1.0000   1.0000   1.0000   1.0000   1.0000   1.0000
     1.0000   1.0000   1.0000   1.0000   1.0000   1.0000   1.0000   1.0000
     1.0000   1.0000   1.0000   1.0000   1.0000   1.0000   1.0000   1.0000
     1.0000   1.0000   1.0000   1.0000   1.0000   1.0000   1.0000   1.0000
     1.0000   1.0000   1.0000   1.0000   1.0000   1.0000   1.0000   1.0000
     1.0000   1.0000   1.0000   1.0000   1.0000   1.0000   1.0000   1.0000
     1.0000   1.0000   1.0000   1.0000   1.0000   1.0000   1.0000   1.0000
     1.0000   1.0000   1.0000   1.0000   1.0000   1.0000   1.0000   1.0000
     1.0000   1.0000   1.0000   1.0000   1.0000   1.0000   1.0000   1.0000
     1.0000   1.0000   1.0000   1.0000   1.0000   1.0000   1.0000   1.0000
     1.0000   1.0000   1.0000   1.0000   1.0000   1.0000   1.0000   1.0000
     1.0000   1.0000   1.0000   1.0000   1.0000   1.0000   1.0000   1.0000
     1.0000   1.0000   1.0000   1.0000   1.0000   1.0000   1.0000   1.0000
     1.0000   1.0000   1.0000   1.0000   1.0000   1.0000   1.0000   1.0000
     1.0000   1.0000   1.0000   1.0000   1.0000   1.0000   1.0000   1.0000
     1.0000   1.0000   1.0000   1.0000   1.0000   1.0000   1.0000   1.0000
     1.0000   1.0000   1.0000   1.0000   1.0000   1.0000   1.0000   1.0000
     1.0000   1.0000   1.0000   1.0000   1.0000   1.0000   1.0000   1.0000
     1.0000   1.0000   1.0000   1.0000   1.0000   1.0000   1.0000   1.0000
     1.0000   1.0000   1.0000   1.0000   1.0000   1.0000   1.0000   1.0000
     1.0000   1.0000   1.0000   1.0000   1.0000   1.0000   1.0000   1.0000
     1.0000   1.0000   1.0000   1.0000   1.0000   1.0000   1.0000   1.0000
     1.0000   1.0000   1.0000   1.0000   1.0000   1.0000   1.0000   1.0000
     1.0000   1.0000   1.0000   1.0000   1.0000   1.0000   1.0000   1.0000
     1.0000   1.0000   1.0000   1.0000   1.0000   1.0000   1.0000   1.0000
     1.0000   1.0000   1.0000   1.0000   1.0000   1.0000   1.0000   1.0000
     1.0000   1.0000   1.0000   1.0000   1.0000   1.0000   1.0000   1.0000
     1.0000   1.0000   1.0000   1.0000   1.0000   1.0000   1.0000   1.0000
     1.0000   1.0000   1.0000   1.0000   1.0000   1.0000   1.0000   1.0000
     1.0000   1.0000   1.0000   1.0000   1.0000   1.0000   1.0000   1.0000
     1.0000   1.0000   1.0000   1.0000   1.0000   1.0000   1.0000   1.0000
     1.0000   1.0000   1.0000   1.0000   1.0000   1.0000   1.0000   1.0000
     1.0000   1.0000   1.0000   1.0000   1.0000   1.0000   1.0000   1.0000
     1.0000   1.0000   1.0000   1.0000   1.0000   1.0000   1.0000   1.0000
     1.0000   1.0000   1.0000   1.0000   1.0000   1.0000   1.0000   1.0000
     1.0000   1.0000   1.0000   1.0000   1.0000   1.0000   1.0001   1.0001
     1.0001   1.0001   1.0001   1.0001   1.0001   1.0001   1.0001   1.0002
     1.0002   1.0002   1.0002   1.0002   1.0002   1.0002   1.0002   1.0003
     1.0003   1.0003   1.0003   1.0003   1.0003   1.0003   1.0004   1.0004
     1.0004   1.0004   1.0004   1.0004   1.0005   1.0005   1.0005   1.0006
     1.0006   1.0006   1.0006   1.0007   1.0007   1.0009   1.0010   1.0011
     1.0012   1.0012   1.0014   1.0015   1.0017   1.0017   1.0018   1.0019
     1.0020   1.0020   1.0022   1.0023   1.0025   1.0026   1.0028   1.0029
     1.0034   1.0040   1.0049   1.0057   1.0065   1.0075   1.0086   1.0089
     1.0094   1.0097   1.0102   1.0106   1.0107   1.0114   1.0117   1.0118
     1.0124   1.0127   1.0131   1.0135   1.0142   1.0157   1.0159   1.0162
     1.0185   1.0193   1.0223   1.0276   1.0457   1.0474   1.0593   1.0634
     1.0664   1.0701   1.0715   1.0740   1.0762   1.0766   1.0781   1.0798
     1.0811   1.0823   1.0829   1.0833   1.0833   1.0833   1.0830   1.0828
     1.0818   1.0814   1.0812   1.0803   1.0797   1.0772   1.0767   1.0750
     1.0698   1.0584   1.0512   0.9981   0.9659   0.9527   0.9453   0.9244
     0.9193   0.9099   0.9064   0.8957   0.8700   0.8678   0.8525   0.7678
     0.5212   0.4686   0.3489   0.3387   0.2286   0.1815   0.0524   0.0172
     0.0129   0.0109   0.0090   0.0081   0.0074   0.0046   0.0042   0.0023
     0.0016   0.0013   0.0006   0.0002   0.0001   0.0001   0.0000   0.0000
     0.0000   0.0000   0.0000   0.0000   0.0000   0.0000   0.0000   0.0000
     0.0000   0.0000   0.0000   0.0000   0.0000   0.0000   0.0000   0.0000
     0.0000   0.0000   0.0000   0.0000   0.0000   0.0000   0.0000   0.0000
     0.0000   0.0000   0.0000   0.0000   0.0000   0.0000   0.0000   0.0000
     0.0000   0.0000   0.0000   0.0000   0.0000   0.0000   0.0000   0.0000
     0.0000   0.0000   0.0000   0.0000   0.0000   0.0000   0.0000   0.0000
     0.0000   0.0000   0.0000   0.0000   0.0000   0.0000   0.0000   0.0000
     0.0000   0.0000   0.0000   0.0000   0.0000   0.0000   0.0000   0.0000
     0.0000   0.0000   0.0000   0.0000

          k = 0.0000 0.0000-0.5000 (134800 PWs)   bands (ev):

    -5.8547  -5.7793  -5.4962  -5.3951  -5.3774  -5.3211  -5.2953  -5.2873
    -5.2671  -5.1957  -5.0237  -4.9309  -4.9041  -4.8893  -4.8610  -4.8331
    -4.8064  -4.7971  -4.7629  -4.7138  -4.5503  -4.4809  -4.4367  -4.4076
    -4.3784  -4.3672  -4.3386  -4.2383  -4.1810  -4.1139  -4.0780  -4.0607
    -4.0293  -4.0104  -3.9912  -3.9694  -3.9439  -3.9286  -3.8987  -3.8789
    -3.8603  -3.8502  -3.8009  -3.7668  -3.6677  -3.6235  -3.6088  -3.6046
    -3.5948  -3.5549  -3.5496  -3.5365  -3.5289  -3.5143  -3.5077  -3.4926
    -3.4747  -3.4630  -3.4412  -3.4050  -3.3545  -3.3229  -3.3127  -3.3013
    -3.2860  -3.2646  -3.2443  -3.2160  -3.1783  -3.1650  -3.1406  -3.1284
    -3.1084  -3.0988  -3.0746  -3.0011  -2.9628  -2.9361  -2.8932  -2.8565
    -2.8413  -2.8250  -2.8161  -2.8020  -2.7699  -2.7054  -2.6924  -2.6699
    -2.6521  -2.6463  -2.6244  -2.6182  -2.5261  -2.3799  -2.1804  -2.1399
    -2.0863  -2.0775  -2.0670  -2.0599  -1.9999  -1.9598  -1.8212  -1.7793
    -1.7462  -1.7179  -1.6979  -1.6704  -1.6387  -1.6033  -1.5767  -1.5671
    -1.5071  -1.4512  -1.3678  -1.3007  -1.2611  -1.2241  -1.1748  -1.1646
    -1.1426  -1.1304  -1.0949  -1.0421  -0.9042  -0.8921  -0.8791  -0.8298
    -0.7852  -0.7409  -0.7366  -0.7025  -0.6932  -0.6719  -0.6528  -0.6350
    -0.6267  -0.6140  -0.5993  -0.5883  -0.5552  -0.5413  -0.5324  -0.5152
    -0.4482  -0.4139  -0.4109  -0.3690  -0.3199  -0.2868  -0.2305  -0.2195
    -0.1943  -0.1781  -0.1563  -0.1172  -0.1129  -0.0973  -0.0614  -0.0447
    -0.0303  -0.0170  -0.0038   0.0023   0.0149   0.0410   0.0454   0.0562
     0.0714   0.0836   0.0879   0.0985   0.1175   0.1366   0.1410   0.1575
     0.1929   0.2234   0.3796   0.6676   0.7178   0.7835   0.8477   0.8652
     0.8901   0.9063   0.9167   0.9767   1.0129   1.1214   1.1350   1.1826
     1.2040   1.2885   1.3310   1.3652   1.3812   1.3998   1.4340   1.4781
     1.5067   1.5402   1.5932   1.6084   1.6184   1.6971   1.7232   1.7316
     1.8057   1.8121   1.8363   1.8778   1.8813   1.8960   1.9181   1.9427
     1.9534   1.9775   1.9862   2.0254   2.0278   2.0501   2.0844   2.0978
     2.1394   2.1560   2.1639   2.2063   2.2183   2.2305   2.2411   2.2593
     2.2718   2.2949   2.3107   2.3350   2.3464   2.3546   2.3849   2.4088
     2.4944   2.5226   2.5499   2.6004   2.6235   2.6518   2.6638   2.6964
     2.7324   2.7616   2.7746   2.8003   2.8180   2.8319   2.8422   2.8574
     2.8666   2.8681   2.8810   2.8855   2.8990   2.9045   2.9049   2.9158
     2.9212   2.9293   2.9402   2.9499   2.9652   2.9764   2.9809   2.9890
     2.9922   2.9993   3.0088   3.0117   3.0343   3.0445   3.0525   3.0687
     3.0912   3.1022   3.1150   3.1492   3.1764   3.1995   3.2219   3.2394
     3.2611   3.2725   3.2799   3.2984   3.3094   3.3122   3.3230   3.3321
     3.3361   3.3427   3.3513   3.3603   3.3679   3.3707   3.3828   3.3924
     3.3961   3.4085   3.4139   3.4353   3.4461   3.4544   3.4806   3.4879
     3.4994   3.5328   3.5514   3.5664   3.5848   3.6117   3.6280   3.6500
     3.6879   3.7000   3.7137   3.7314   3.7355   3.7688   3.8027   3.8174
     3.8514   3.8779   3.8890   3.8917   3.9117   3.9152   3.9347   3.9440
     3.9582   3.9647   3.9713   3.9758   3.9885   4.0019   4.0151   4.0363
     4.0435   4.0589   4.0600   4.0620   4.0786   4.0898   4.0913   4.1073
     4.1106   4.1237   4.1317   4.1509   4.1564   4.1672   4.2031   4.2049
     4.2327   4.2535   4.2609   4.2801   4.3135   4.3216   4.3302   4.3531
     4.3713   4.3817   4.3942   4.4098   4.4149   4.4228   4.4265   4.4353
     4.4410   4.4580   4.4658   4.4704   4.4864   4.4890   4.4922   4.5001
     4.5184   4.5311   4.5392   4.5589   4.5718   4.5884   4.6059   4.6374
     4.6515   4.6588   4.6733   4.6901   4.7003   4.7112   4.7575   4.7658
     4.7852   4.7948   4.8079   4.8417   4.8486   4.8922   4.9036   4.9296
     4.9556   5.0213   5.1353   5.1851   5.2583   5.2831   5.3111   5.3450
     5.3512   5.3536   5.3731   5.3787   5.3837   5.4010   5.4080   5.4132
     5.4279   5.4376   5.4473   5.4718   5.4931   5.5165   5.6026   5.6390
     5.6786   5.6947   5.7576   5.9946   6.0726   6.3165   6.7056   6.8962
     6.9818   7.1085   7.2462   7.2649   7.3186   7.3394   7.3589   7.4295
     7.4391   7.4534   7.4678   7.5058   7.5223   7.5229   7.5586   7.5645
     7.5782   7.6052   7.6348   7.6443   7.7028   7.7268   7.7385   7.7530
     7.7857   7.8197   7.8307   7.8718   7.8794   7.8912   7.9040   7.9084
     7.9480   7.9563   8.0024   8.0192   8.0521   8.0841   8.0964   8.1266
     8.1413   8.1944   8.2047   8.2122   8.2201   8.2400   8.2489   8.2865
     8.2977   8.3062   8.3190   8.3280   8.3366   8.3488   8.3559   8.3679
     8.3789   8.3848   8.3901   8.4058   8.4077   8.4216   8.4224   8.4361
     8.4437   8.4595   8.4673   8.4748   8.4785   8.4987   8.5102   8.5217
     8.5268   8.5329   8.5403   8.5550   8.5625   8.5758   8.5815   8.5907
     8.6067   8.6141   8.6154   8.6214

     occupation numbers 
     1.0000   1.0000   1.0000   1.0000   1.0000   1.0000   1.0000   1.0000
     1.0000   1.0000   1.0000   1.0000   1.0000   1.0000   1.0000   1.0000
     1.0000   1.0000   1.0000   1.0000   1.0000   1.0000   1.0000   1.0000
     1.0000   1.0000   1.0000   1.0000   1.0000   1.0000   1.0000   1.0000
     1.0000   1.0000   1.0000   1.0000   1.0000   1.0000   1.0000   1.0000
     1.0000   1.0000   1.0000   1.0000   1.0000   1.0000   1.0000   1.0000
     1.0000   1.0000   1.0000   1.0000   1.0000   1.0000   1.0000   1.0000
     1.0000   1.0000   1.0000   1.0000   1.0000   1.0000   1.0000   1.0000
     1.0000   1.0000   1.0000   1.0000   1.0000   1.0000   1.0000   1.0000
     1.0000   1.0000   1.0000   1.0000   1.0000   1.0000   1.0000   1.0000
     1.0000   1.0000   1.0000   1.0000   1.0000   1.0000   1.0000   1.0000
     1.0000   1.0000   1.0000   1.0000   1.0000   1.0000   1.0000   1.0000
     1.0000   1.0000   1.0000   1.0000   1.0000   1.0000   1.0000   1.0000
     1.0000   1.0000   1.0000   1.0000   1.0000   1.0000   1.0000   1.0000
     1.0000   1.0000   1.0000   1.0000   1.0000   1.0000   1.0000   1.0000
     1.0000   1.0000   1.0000   1.0000   1.0000   1.0000   1.0000   1.0000
     1.0000   1.0000   1.0000   1.0000   1.0000   1.0000   1.0000   1.0000
     1.0000   1.0000   1.0000   1.0000   1.0000   1.0000   1.0000   1.0000
     1.0000   1.0000   1.0000   1.0000   1.0000   1.0000   1.0000   1.0000
     1.0000   1.0000   1.0000   1.0000   1.0000   1.0000   1.0000   1.0000
     1.0000   1.0000   1.0000   1.0000   1.0000   1.0000   1.0000   1.0000
     1.0000   1.0000   1.0000   1.0000   1.0000   1.0000   1.0000   1.0000
     1.0000   1.0000   1.0000   1.0000   1.0000   1.0000   1.0000   1.0000
     1.0000   1.0000   1.0000   1.0000   1.0000   1.0000   1.0000   1.0000
     1.0000   1.0000   1.0000   1.0000   1.0000   1.0000   1.0000   1.0000
     1.0000   1.0000   1.0000   1.0000   1.0000   1.0000   1.0000   1.0000
     1.0000   1.0000   1.0000   1.0000   1.0000   1.0000   1.0000   1.0000
     1.0000   1.0000   1.0000   1.0000   1.0000   1.0000   1.0000   1.0000
     1.0000   1.0000   1.0000   1.0000   1.0000   1.0000   1.0000   1.0000
     1.0000   1.0000   1.0000   1.0000   1.0000   1.0000   1.0000   1.0000
     1.0000   1.0000   1.0000   1.0000   1.0000   1.0000   1.0000   1.0000
     1.0000   1.0000   1.0000   1.0000   1.0000   1.0000   1.0000   1.0000
     1.0000   1.0000   1.0000   1.0000   1.0000   1.0000   1.0000   1.0000
     1.0000   1.0000   1.0000   1.0000   1.0000   1.0000   1.0000   1.0000
     1.0000   1.0000   1.0000   1.0000   1.0000   1.0000   1.0000   1.0000
     1.0000   1.0000   1.0000   1.0000   1.0000   1.0000   1.0000   1.0000
     1.0000   1.0000   1.0000   1.0000   1.0000   1.0000   1.0000   1.0000
     1.0000   1.0000   1.0000   1.0000   1.0000   1.0000   1.0000   1.0000
     1.0000   1.0000   1.0000   1.0000   1.0000   1.0000   1.0000   1.0000
     1.0000   1.0001   1.0001   1.0001   1.0001   1.0001   1.0001   1.0001
     1.0002   1.0002   1.0002   1.0003   1.0003   1.0004   1.0005   1.0005
     1.0007   1.0008   1.0009   1.0009   1.0010   1.0010   1.0012   1.0013
     1.0014   1.0015   1.0015   1.0016   1.0017   1.0019   1.0020   1.0023
     1.0024   1.0026   1.0027   1.0027   1.0030   1.0032   1.0032   1.0035
     1.0036   1.0039   1.0041   1.0045   1.0047   1.0050   1.0061   1.0061
     1.0071   1.0079   1.0082   1.0091   1.0107   1.0111   1.0116   1.0129
     1.0141   1.0148   1.0156   1.0167   1.0171   1.0177   1.0180   1.0187
     1.0192   1.0206   1.0213   1.0217   1.0231   1.0234   1.0237   1.0244
     1.0262   1.0275   1.0284   1.0305   1.0319   1.0339   1.0360   1.0399
     1.0417   1.0426   1.0446   1.0468   1.0482   1.0497   1.0561   1.0572
     1.0599   1.0612   1.0630   1.0674   1.0683   1.0735   1.0747   1.0773
     1.0795   1.0830   1.0787   1.0714   1.0533   1.0450   1.0342   1.0191
     1.0161   1.0149   1.0048   1.0018   0.9990   0.9891   0.9850   0.9818
     0.9725   0.9662   0.9597   0.9424   0.9265   0.9080   0.8321   0.7967
     0.7565   0.7397   0.6720   0.4148   0.3385   0.1545   0.0271   0.0092
     0.0054   0.0023   0.0009   0.0007   0.0005   0.0004   0.0004   0.0002
     0.0002   0.0002   0.0001   0.0001   0.0001   0.0001   0.0001   0.0001
     0.0001   0.0000   0.0000   0.0000   0.0000   0.0000   0.0000   0.0000
     0.0000   0.0000   0.0000   0.0000   0.0000   0.0000   0.0000   0.0000
     0.0000   0.0000   0.0000   0.0000   0.0000   0.0000   0.0000   0.0000
     0.0000   0.0000   0.0000   0.0000   0.0000   0.0000   0.0000   0.0000
     0.0000   0.0000   0.0000   0.0000   0.0000   0.0000   0.0000   0.0000
     0.0000   0.0000   0.0000   0.0000   0.0000   0.0000   0.0000   0.0000
     0.0000   0.0000   0.0000   0.0000   0.0000   0.0000   0.0000   0.0000
     0.0000   0.0000   0.0000   0.0000   0.0000   0.0000   0.0000   0.0000
     0.0000   0.0000   0.0000   0.0000

          k = 0.0000-0.5000-0.5000 (134912 PWs)   bands (ev):

    -5.7728  -5.7435  -5.6543  -5.6152  -5.3328  -5.2480  -5.2380  -5.2132
    -5.1824  -5.1680  -5.1441  -5.1300  -4.8741  -4.8434  -4.8244  -4.7836
    -4.7046  -4.6570  -4.6442  -4.6266  -4.4511  -4.4013  -4.3867  -4.3740
    -4.3176  -4.2985  -4.2779  -4.2710  -4.2682  -4.2549  -4.2378  -4.2257
    -4.2185  -4.2046  -4.1765  -4.1603  -4.0168  -3.9812  -3.9206  -3.8766
    -3.8305  -3.8089  -3.8011  -3.7701  -3.7687  -3.7520  -3.7207  -3.7044
    -3.6533  -3.6302  -3.6249  -3.5881  -3.5741  -3.5686  -3.5641  -3.5252
    -3.3166  -3.3021  -3.2416  -3.2052  -3.1947  -3.1928  -3.1822  -3.1639
    -3.1538  -3.1499  -3.1293  -3.1276  -3.1179  -3.1146  -3.0792  -3.0425
    -3.0206  -2.9315  -2.9120  -2.8834  -2.8666  -2.8436  -2.7994  -2.7863
    -2.7603  -2.7280  -2.7197  -2.7056  -2.6883  -2.6848  -2.6764  -2.6500
    -2.6458  -2.6315  -2.6252  -2.6135  -2.6047  -2.6013  -2.5176  -2.4624
    -2.3935  -2.3856  -2.3622  -2.3477  -2.3356  -2.3044  -2.2438  -2.0381
    -1.8996  -1.8933  -1.8484  -1.7388  -1.5355  -1.5136  -1.4409  -1.4264
    -1.2587  -1.2267  -1.0811  -1.0009  -0.9934  -0.9457  -0.9115  -0.8887
    -0.8337  -0.8292  -0.7914  -0.7853  -0.7550  -0.7388  -0.7171  -0.6941
    -0.6823  -0.6705  -0.6586  -0.6462  -0.6303  -0.6197  -0.6164  -0.6061
    -0.6028  -0.5943  -0.5764  -0.5729  -0.5651  -0.5533  -0.5481  -0.5212
    -0.5132  -0.5049  -0.4911  -0.4888  -0.4709  -0.4646  -0.4512  -0.4443
    -0.4308  -0.4271  -0.4192  -0.4178  -0.4012  -0.3965  -0.3926  -0.3745
    -0.3616  -0.3516  -0.3413  -0.3239  -0.2778  -0.2259  -0.0229   0.2833
     0.3848   0.4027   0.4511   0.5102   0.5362   0.5566   0.5767   0.5875
     0.6178   0.6280   0.6349   0.6490   0.6718   0.7099   0.7252   0.7384
     0.7719   0.7838   0.7994   0.8157   0.8241   0.8559   0.8643   0.8745
     0.8885   0.9219   0.9855   1.0633   1.1826   1.2718   1.3404   1.3739
     1.4766   1.6413   1.7661   1.8318   1.8662   1.8783   1.9284   1.9369
     1.9517   1.9822   1.9878   2.0452   2.0558   2.0847   2.1104   2.1364
     2.1492   2.1561   2.1618   2.1699   2.1765   2.1804   2.1877   2.2035
     2.2086   2.2180   2.2380   2.2423   2.2528   2.2589   2.2916   2.2930
     2.3044   2.3303   2.3395   2.3635   2.3729   2.3954   2.4193   2.4273
     2.4503   2.4607   2.4726   2.4896   2.5022   2.5166   2.5296   2.5411
     2.5537   2.5667   2.5771   2.5810   2.6239   2.6379   2.6481   2.6622
     2.6742   2.6981   2.7267   2.7362   2.7938   2.8175   2.8298   2.8384
     2.8650   2.8875   2.9211   2.9502   2.9574   2.9815   2.9982   3.0032
     3.0187   3.0249   3.0291   3.0321   3.0583   3.0657   3.0707   3.0985
     3.1136   3.1234   3.1322   3.1441   3.1578   3.1652   3.1873   3.1996
     3.2126   3.2299   3.2417   3.2653   3.2833   3.3309   3.3560   3.3798
     3.3865   3.4037   3.4230   3.4305   3.4547   3.4593   3.4744   3.4875
     3.4882   3.4973   3.5107   3.5175   3.5288   3.5348   3.5474   3.5514
     3.5588   3.5678   3.5845   3.5930   3.6010   3.6138   3.6272   3.6423
     3.6499   3.6602   3.6722   3.6835   3.6948   3.7073   3.7120   3.7323
     3.7479   3.7596   3.7841   3.7968   3.8021   3.8120   3.8285   3.8329
     3.8400   3.8686   3.8719   3.8935   3.9283   3.9518   3.9681   3.9980
     4.0124   4.0510   4.0537   4.0659   4.0730   4.0876   4.0927   4.1069
     4.1285   4.1326   4.1365   4.1500   4.1566   4.1608   4.1659   4.1863
     4.2171   4.2300   4.2337   4.2618   4.2800   4.2969   4.3158   4.3580
     4.4104   4.4223   4.4347   4.4577   4.4642   4.4735   4.4902   4.5031
     4.5254   4.5450   4.5769   4.6169   4.6317   4.6696   4.6877   4.7011
     4.7180   4.7411   4.7480   4.7572   4.7754   4.7787   4.7847   4.7902
     4.8041   4.8070   4.8164   4.8244   4.8292   4.8319   4.8410   4.8487
     4.8517   4.8641   4.8774   4.8936   4.9054   4.9115   4.9157   4.9246
     4.9379   4.9725   4.9903   5.0058   5.0112   5.0179   5.0432   5.0531
     5.0723   5.1079   5.1169   5.1308   5.1631   5.1895   5.2071   5.2113
     5.2398   5.2958   5.3730   5.3861   5.4290   5.4800   5.6845   5.7759
     5.8816   5.9783   5.9912   6.0267   6.1381   6.3414   6.7754   6.9790
     7.0457   7.1443   7.1869   7.2161   7.2654   7.3598   7.3816   7.3967
     7.4120   7.4435   7.4733   7.5044   7.5123   7.5399   7.5629   7.5829
     7.6024   7.6484   7.6702   7.6952   7.7416   7.7613   7.7954   7.8131
     7.8418   7.8470   7.8752   7.8839   7.8965   7.8993   7.9061   7.9270
     7.9334   7.9468   7.9516   7.9646   7.9842   7.9941   8.0018   8.0168
     8.0374   8.0405   8.0565   8.0638   8.0791   8.1045   8.1192   8.1278
     8.1454   8.1635   8.1914   8.2045   8.2203   8.2368   8.2528   8.2874
     8.3415   8.3482   8.3721   8.3873   8.4417   8.4468   8.4896   8.5031
     8.5157   8.5402   8.5515   8.5595   8.5706   8.5851   8.5973   8.6097
     8.6186   8.6318   8.6645   8.6731   8.6839   8.6868   8.6947   8.6981
     8.7044   8.7152   8.7216   8.7275

     occupation numbers 
     1.0000   1.0000   1.0000   1.0000   1.0000   1.0000   1.0000   1.0000
     1.0000   1.0000   1.0000   1.0000   1.0000   1.0000   1.0000   1.0000
     1.0000   1.0000   1.0000   1.0000   1.0000   1.0000   1.0000   1.0000
     1.0000   1.0000   1.0000   1.0000   1.0000   1.0000   1.0000   1.0000
     1.0000   1.0000   1.0000   1.0000   1.0000   1.0000   1.0000   1.0000
     1.0000   1.0000   1.0000   1.0000   1.0000   1.0000   1.0000   1.0000
     1.0000   1.0000   1.0000   1.0000   1.0000   1.0000   1.0000   1.0000
     1.0000   1.0000   1.0000   1.0000   1.0000   1.0000   1.0000   1.0000
     1.0000   1.0000   1.0000   1.0000   1.0000   1.0000   1.0000   1.0000
     1.0000   1.0000   1.0000   1.0000   1.0000   1.0000   1.0000   1.0000
     1.0000   1.0000   1.0000   1.0000   1.0000   1.0000   1.0000   1.0000
     1.0000   1.0000   1.0000   1.0000   1.0000   1.0000   1.0000   1.0000
     1.0000   1.0000   1.0000   1.0000   1.0000   1.0000   1.0000   1.0000
     1.0000   1.0000   1.0000   1.0000   1.0000   1.0000   1.0000   1.0000
     1.0000   1.0000   1.0000   1.0000   1.0000   1.0000   1.0000   1.0000
     1.0000   1.0000   1.0000   1.0000   1.0000   1.0000   1.0000   1.0000
     1.0000   1.0000   1.0000   1.0000   1.0000   1.0000   1.0000   1.0000
     1.0000   1.0000   1.0000   1.0000   1.0000   1.0000   1.0000   1.0000
     1.0000   1.0000   1.0000   1.0000   1.0000   1.0000   1.0000   1.0000
     1.0000   1.0000   1.0000   1.0000   1.0000   1.0000   1.0000   1.0000
     1.0000   1.0000   1.0000   1.0000   1.0000   1.0000   1.0000   1.0000
     1.0000   1.0000   1.0000   1.0000   1.0000   1.0000   1.0000   1.0000
     1.0000   1.0000   1.0000   1.0000   1.0000   1.0000   1.0000   1.0000
     1.0000   1.0000   1.0000   1.0000   1.0000   1.0000   1.0000   1.0000
     1.0000   1.0000   1.0000   1.0000   1.0000   1.0000   1.0000   1.0000
     1.0000   1.0000   1.0000   1.0000   1.0000   1.0000   1.0000   1.0000
     1.0000   1.0000   1.0000   1.0000   1.0000   1.0000   1.0000   1.0000
     1.0000   1.0000   1.0000   1.0000   1.0000   1.0000   1.0000   1.0000
     1.0000   1.0000   1.0000   1.0000   1.0000   1.0000   1.0000   1.0000
     1.0000   1.0000   1.0000   1.0000   1.0000   1.0000   1.0000   1.0000
     1.0000   1.0000   1.0000   1.0000   1.0000   1.0000   1.0000   1.0000
     1.0000   1.0000   1.0000   1.0000   1.0000   1.0000   1.0000   1.0000
     1.0000   1.0000   1.0000   1.0000   1.0000   1.0000   1.0000   1.0000
     1.0000   1.0000   1.0000   1.0000   1.0000   1.0000   1.0000   1.0000
     1.0000   1.0000   1.0000   1.0000   1.0000   1.0000   1.0000   1.0000
     1.0000   1.0000   1.0000   1.0000   1.0000   1.0000   1.0000   1.0000
     1.0000   1.0000   1.0000   1.0000   1.0000   1.0000   1.0000   1.0000
     1.0000   1.0000   1.0000   1.0000   1.0000   1.0000   1.0000   1.0000
     1.0000   1.0000   1.0000   1.0000   1.0001   1.0001   1.0001   1.0001
     1.0001   1.0001   1.0001   1.0001   1.0001   1.0001   1.0001   1.0001
     1.0001   1.0002   1.0002   1.0002   1.0002   1.0002   1.0002   1.0003
     1.0003   1.0003   1.0004   1.0005   1.0005   1.0005   1.0006   1.0006
     1.0006   1.0008   1.0008   1.0009   1.0011   1.0013   1.0015   1.0018
     1.0020   1.0025   1.0026   1.0028   1.0029   1.0031   1.0032   1.0035
     1.0040   1.0041   1.0042   1.0045   1.0047   1.0048   1.0049   1.0055
     1.0065   1.0070   1.0071   1.0083   1.0091   1.0099   1.0108   1.0132
     1.0168   1.0177   1.0187   1.0206   1.0211   1.0219   1.0235   1.0247
     1.0269   1.0290   1.0325   1.0373   1.0391   1.0441   1.0465   1.0483
     1.0506   1.0538   1.0548   1.0560   1.0585   1.0590   1.0598   1.0606
     1.0625   1.0628   1.0641   1.0652   1.0658   1.0661   1.0673   1.0683
     1.0687   1.0702   1.0718   1.0736   1.0749   1.0755   1.0760   1.0768
     1.0781   1.0807   1.0818   1.0825   1.0827   1.0829   1.0833   1.0833
     1.0830   1.0812   1.0805   1.0792   1.0751   1.0706   1.0669   1.0660
     1.0587   1.0403   1.0049   0.9977   0.9718   0.9364   0.7504   0.6520
     0.5352   0.4315   0.4182   0.3826   0.2804   0.1407   0.0185   0.0055
     0.0035   0.0018   0.0013   0.0011   0.0007   0.0004   0.0003   0.0003
     0.0002   0.0002   0.0001   0.0001   0.0001   0.0001   0.0001   0.0001
     0.0000   0.0000   0.0000   0.0000   0.0000   0.0000   0.0000   0.0000
     0.0000   0.0000   0.0000   0.0000   0.0000   0.0000   0.0000   0.0000
     0.0000   0.0000   0.0000   0.0000   0.0000   0.0000   0.0000   0.0000
     0.0000   0.0000   0.0000   0.0000   0.0000   0.0000   0.0000   0.0000
[...]
     atom   39 type  1   force =    -0.00000009   -0.00000040    0.00000130
     atom   40 type  1   force =     0.00000352   -0.00000545    0.00000366
     atom   41 type  1   force =    -0.00000378   -0.00000624    0.00000169
     atom   42 type  1   force =    -0.00000650   -0.00000397    0.00000120
     atom   43 type  1   force =    -0.00000877   -0.00000130   -0.00000073
     atom   44 type  1   force =    -0.00000903   -0.00000378   -0.00000196
     atom   45 type  1   force =    -0.00000845   -0.00000467   -0.00000043
     atom   46 type  1   force =     0.00000203   -0.00000394   -0.00000111
     atom   47 type  1   force =    -0.00000390   -0.00000141   -0.00000156
     atom   48 type  1   force =    -0.00000157    0.00000329    0.00000147
     atom   49 type  1   force =    -0.00000484    0.00000408    0.00000133
     atom   50 type  1   force =    -0.00000619    0.00000250    0.00000225
     atom   51 type  1   force =    -0.00000304    0.00000060    0.00000369
     atom   52 type  1   force =    -0.00000251    0.00000367    0.00000165
     atom   53 type  1   force =    -0.00000102    0.00000362    0.00000110
     atom   54 type  1   force =    -0.00000614    0.00000472    0.00000051
     atom   55 type  1   force =    -0.00000499    0.00000183    0.00000074
     atom   56 type  1   force =    -0.00000153    0.00000616   -0.00000227
     atom   57 type  1   force =    -0.00000129    0.00000571   -0.00000170
     atom   58 type  1   force =    -0.00000219    0.00000323    0.00000082
     atom   59 type  1   force =    -0.00000118    0.00000317   -0.00000045
     atom   60 type  1   force =    -0.00000225    0.00000347   -0.00000078
     atom   61 type  1   force =    -0.00000702    0.00000473   -0.00000428
     atom   62 type  1   force =    -0.00000017    0.00000472   -0.00000328
     atom   63 type  1   force =    -0.00000051    0.00000498   -0.00000205
     atom   64 type  1   force =     0.00000333    0.00000133    0.00000127
     atom   65 type  1   force =    -0.00000197    0.00000217    0.00000033
     atom   66 type  1   force =    -0.00000479    0.00000416   -0.00000270
     atom   67 type  1   force =    -0.00000793    0.00000454   -0.00000242
     atom   68 type  1   force =    -0.00000698    0.00000050   -0.00000025
     atom   69 type  1   force =    -0.00000721    0.00000269    0.00000206
     atom   70 type  1   force =     0.00000061    0.00000344    0.00000228
     atom   71 type  1   force =    -0.00000447    0.00000181    0.00000081
     atom   72 type  1   force =    -0.00000487    0.00000117    0.00000447
     atom   73 type  1   force =     0.00000169   -0.00000124    0.00000742
     atom   74 type  1   force =     0.00000318   -0.00000043    0.00000715
     atom   75 type  1   force =     0.00000432   -0.00000568    0.00000550
     atom   76 type  1   force =     0.00000650   -0.00000050    0.00000763
     atom   77 type  1   force =     0.00000567   -0.00000467    0.00000108
     atom   78 type  1   force =    -0.00000017   -0.00000246    0.00000285
     atom   79 type  1   force =     0.00000177   -0.00000509    0.00000125
     atom   80 type  1   force =     0.00000094   -0.00000008    0.00000187
     atom   81 type  1   force =     0.00000083   -0.00000393   -0.00000245
     atom   82 type  1   force =     0.00000289   -0.00000667   -0.00000244
     atom   83 type  1   force =     0.00000014   -0.00001082   -0.00000792
     atom   84 type  1   force =    -0.00000017    0.00000111   -0.00000870
     atom   85 type  1   force =     0.00000059   -0.00000221   -0.00001016
     atom   86 type  1   force =    -0.00000420   -0.00000448   -0.00000208
     atom   87 type  1   force =    -0.00000714   -0.00000664   -0.00000421
     atom   88 type  1   force =    -0.00000791    0.00000355   -0.00000588
     atom   89 type  1   force =    -0.00000719    0.00000161   -0.00000345
     atom   90 type  1   force =    -0.00000199   -0.00000362   -0.00000504
     atom   91 type  1   force =     0.00000268   -0.00000578    0.00000131
     atom   92 type  1   force =    -0.00000135    0.00000521    0.00000401
     atom   93 type  1   force =     0.00000476    0.00000120    0.00000692
     atom   94 type  1   force =    -0.00000882   -0.00000011   -0.00000118
     atom   95 type  1   force =    -0.00000313   -0.00000252    0.00000286
     atom   96 type  1   force =    -0.00000548   -0.00000270    0.00000244
     atom   97 type  1   force =    -0.00000036   -0.00000252    0.00000459
     atom   98 type  1   force =    -0.00000058   -0.00000166    0.00000718
     atom   99 type  1   force =     0.00000231    0.00000396    0.00000740
     atom  100 type  1   force =     0.00000155   -0.00000405    0.00000247
     atom  101 type  1   force =    -0.00000013   -0.00000412   -0.00000394
     atom  102 type  1   force =    -0.00000100    0.00000044    0.00000210
     atom  103 type  1   force =    -0.00000071    0.00000350   -0.00000140
     atom  104 type  1   force =    -0.00000265   -0.00000456   -0.00000030
     atom  105 type  1   force =    -0.00000554   -0.00000392   -0.00000568
     atom  106 type  1   force =    -0.00000320    0.00000116   -0.00000699
     atom  107 type  1   force =    -0.00000288    0.00000832   -0.00001172
     atom  108 type  1   force =    -0.00000411   -0.00000879   -0.00000602
     atom  109 type  1   force =    -0.00000355   -0.00000755   -0.00000164
     atom  110 type  1   force =    -0.00000744   -0.00000074   -0.00000291
     atom  111 type  1   force =    -0.00000818    0.00000203   -0.00000449
     atom  112 type  1   force =    -0.00001074   -0.00000582   -0.00000109
     atom  113 type  1   force =    -0.00000873   -0.00000425    0.00000093
     atom  114 type  1   force =    -0.00000636   -0.00000243   -0.00000044
     atom  115 type  1   force =    -0.00000188   -0.00000534    0.00000392
     atom  116 type  1   force =     0.00000250   -0.00000490    0.00000705
     atom  117 type  1   force =    -0.00000872   -0.00000294    0.00000112
     atom  118 type  1   force =    -0.00000476   -0.00000048    0.00000568
     atom  119 type  1   force =    -0.00000385    0.00000100    0.00000541
     atom  120 type  1   force =     0.00000162    0.00000441    0.00000778
     atom  121 type  1   force =     0.00000196    0.00000221    0.00001231
     atom  122 type  1   force =     0.00000796    0.00000185    0.00001085
     atom  123 type  1   force =     0.00000287    0.00000597    0.00000401
     atom  124 type  1   force =     0.00000422    0.00000830   -0.00000083
     atom  125 type  1   force =     0.00000097    0.00000248    0.00000456
     atom  126 type  1   force =     0.00000458    0.00000070    0.00000306
     atom  127 type  1   force =    -0.00000129    0.00000483   -0.00000250
     atom  128 type  1   force =    -0.00000094    0.00000818   -0.00000628
     atom  129 type  1   force =     0.00000363    0.00000608   -0.00000320
     atom  130 type  1   force =     0.00000232    0.00000401   -0.00000949
     atom  131 type  1   force =    -0.00000418    0.00000813   -0.00000874
     atom  132 type  1   force =     0.00000006    0.00000940   -0.00000953
     atom  133 type  1   force =    -0.00000301    0.00000602   -0.00000597
     atom  134 type  1   force =    -0.00000359    0.00000466   -0.00000964
     atom  135 type  1   force =    -0.00000879    0.00000265   -0.00000298
     atom  136 type  1   force =    -0.00000737    0.00000452   -0.00000157
     atom  137 type  1   force =    -0.00000347    0.00000510   -0.00000974
     atom  138 type  1   force =     0.00000373    0.00000358   -0.00000322
     atom  139 type  1   force =     0.00000143    0.00000039    0.00000188
     atom  140 type  1   force =     0.00000509    0.00000406    0.00001217
     atom  141 type  1   force =    -0.00000856    0.00000263    0.00000056
     atom  142 type  1   force =    -0.00000455    0.00000183    0.00000674
     atom  143 type  1   force =     0.00000903    0.00000072    0.00001251
     atom  144 type  1   force =    -0.00000284   -0.00000101    0.00000381
     atom  145 type  1   force =     0.00000484   -0.00000261    0.00000262
     atom  146 type  1   force =     0.00000002   -0.00000575   -0.00000092
     atom  147 type  1   force =    -0.00000455    0.00000346    0.00000614
     atom  148 type  1   force =    -0.00000614   -0.00000591   -0.00000190
     atom  149 type  1   force =     0.00000393   -0.00000783    0.00000353
     atom  150 type  1   force =     0.00000186   -0.00001183   -0.00000392
     atom  151 type  1   force =     0.00000455   -0.00000069   -0.00000637
     atom  152 type  1   force =     0.00000257   -0.00000515   -0.00000757
     atom  153 type  1   force =    -0.00000019   -0.00000927   -0.00000459
     atom  154 type  1   force =     0.00000460   -0.00000839   -0.00000072
     atom  155 type  1   force =     0.00000180    0.00000276   -0.00000709
     atom  156 type  1   force =     0.00000407    0.00000051   -0.00000215
     atom  157 type  1   force =     0.00000404   -0.00000908   -0.00000721
     atom  158 type  1   force =     0.00000808   -0.00000946   -0.00000129
     atom  159 type  1   force =     0.00000712    0.00000389   -0.00000786
     atom  160 type  1   force =     0.00001013    0.00000273    0.00000073
     atom  161 type  1   force =     0.00000902   -0.00000186    0.00000058
     atom  162 type  1   force =     0.00000772   -0.00000268    0.00000261
     atom  163 type  1   force =     0.00000786    0.00000430    0.00000410
     atom  164 type  1   force =     0.00000247    0.00000154    0.00000176
     atom  165 type  1   force =     0.00000797   -0.00000011    0.00000366
     atom  166 type  1   force =     0.00000819   -0.00000439    0.00000388
     atom  167 type  1   force =     0.00000525   -0.00000686    0.00000536
     atom  168 type  1   force =     0.00000322   -0.00000421    0.00000183
     atom  169 type  1   force =     0.00000598   -0.00000226    0.00000094
     atom  170 type  1   force =     0.00000124    0.00000395    0.00000021
     atom  171 type  1   force =     0.00000163   -0.00000810   -0.00000190
     atom  172 type  1   force =     0.00000223   -0.00000342   -0.00000249
     atom  173 type  1   force =     0.00000125    0.00000034   -0.00000024
     atom  174 type  1   force =     0.00000168    0.00000838   -0.00000418
     atom  175 type  1   force =     0.00000012   -0.00001049   -0.00000752
     atom  176 type  1   force =     0.00000612   -0.00000817   -0.00000753
     atom  177 type  1   force =     0.00000527    0.00000262   -0.00000700
     atom  178 type  1   force =     0.00000480    0.00000553   -0.00000339
     atom  179 type  1   force =     0.00000947   -0.00001018    0.00000025
     atom  180 type  1   force =     0.00000916   -0.00000694    0.00000407
     atom  181 type  1   force =     0.00000420    0.00000140   -0.00000631
     atom  182 type  1   force =     0.00001081    0.00000543    0.00000053
     atom  183 type  1   force =     0.00000583   -0.00001017    0.00000152
     atom  184 type  1   force =     0.00001205   -0.00000699    0.00000500
     atom  185 type  1   force =     0.00001269   -0.00000435    0.00000464
     atom  186 type  1   force =     0.00000843   -0.00000204    0.00000324
     atom  187 type  1   force =     0.00001029   -0.00000577    0.00000197
     atom  188 type  1   force =     0.00000527   -0.00000589   -0.00000130
     atom  189 type  1   force =     0.00000649   -0.00000358    0.00000509
     atom  190 type  1   force =     0.00000809    0.00000109    0.00000728
     atom  191 type  1   force =     0.00000536    0.00000433    0.00001001
     atom  192 type  1   force =     0.00000351    0.00000842    0.00000902
     atom  193 type  1   force =     0.00000268    0.00000576    0.00000906
     atom  194 type  1   force =    -0.00000550    0.00000122    0.00000259
     atom  195 type  1   force =    -0.00000035    0.00000842    0.00000055
     atom  196 type  1   force =    -0.00000306    0.00000816   -0.00000108
     atom  197 type  1   force =     0.00000608    0.00000663    0.00000567
     atom  198 type  1   force =     0.00000281    0.00000482   -0.00000178
     atom  199 type  1   force =     0.00000229    0.00001176   -0.00000891
     atom  200 type  1   force =     0.00000269    0.00001179   -0.00000983
     atom  201 type  1   force =    -0.00000258    0.00000781   -0.00000673
     atom  202 type  1   force =    -0.00000160    0.00000374   -0.00000540
     atom  203 type  1   force =     0.00000694    0.00000929   -0.00000653
     atom  204 type  1   force =     0.00000450    0.00000534   -0.00000312
     atom  205 type  1   force =     0.00000374    0.00000886   -0.00001204
     atom  206 type  1   force =     0.00000552    0.00000468   -0.00000983
     atom  207 type  1   force =     0.00000488    0.00000494   -0.00000146
     atom  208 type  1   force =     0.00000954    0.00000483    0.00000244
     atom  209 type  1   force =     0.00000801    0.00000625   -0.00000287
     atom  210 type  1   force =     0.00000570    0.00000453    0.00000036
     atom  211 type  1   force =     0.00000989    0.00000252    0.00000464
     atom  212 type  1   force =     0.00000322    0.00000360    0.00000440
     atom  213 type  1   force =     0.00000905    0.00000405    0.00000596
     atom  214 type  1   force =     0.00000805    0.00000429    0.00001066
     atom  215 type  2   force =    -0.00000095   -0.00000097   -0.00000223
     atom  216 type  2   force =     0.00000152   -0.00000132    0.00000017
     atom  217 type  2   force =     0.00000130    0.00000109    0.00000307
     atom  218 type  2   force =    -0.00000025    0.00000069    0.00000086
     atom  219 type  2   force =    -0.00000125   -0.00000037   -0.00000084
     atom  220 type  2   force =     0.00000064   -0.00000178    0.00000008
     atom  221 type  2   force =     0.00000044    0.00000224   -0.00000333
     atom  222 type  2   force =     0.00000108   -0.00000279   -0.00000058
     atom  223 type  2   force =    -0.00000077    0.00000083    0.00000100
     atom  224 type  2   force =     0.00000138   -0.00000028   -0.00000182
     atom  225 type  2   force =     0.00000292    0.00000101    0.00000019
     atom  226 type  2   force =     0.00000026   -0.00000210   -0.00000054
     atom  227 type  2   force =    -0.00000062    0.00000033    0.00000131
     atom  228 type  2   force =    -0.00000075    0.00000074    0.00000096
     atom  229 type  2   force =     0.00000184   -0.00000067    0.00000253
     atom  230 type  2   force =     0.00000061   -0.00000130    0.00000053
     atom  231 type  2   force =     0.00000077   -0.00000225   -0.00000110

     Total force =     0.133806     Total SCF correction =     0.000124


     Computing stress (Cartesian axis) and pressure

          total   stress  (Ry/bohr**3)                   (kbar)     P=   19.21
   0.00013384  -0.00000102   0.00000054         19.69     -0.15      0.08
  -0.00000102   0.00013035  -0.00000089         -0.15     19.17     -0.13
   0.00000054  -0.00000089   0.00012762          0.08     -0.13     18.77

     kinetic stress (kbar)   2310.26     -0.59      0.61
                               -0.59   2310.19      0.68
                                0.61      0.68   2309.68

     local   stress (kbar)  -1258.68     -6.36      1.85
                               -6.36  -1245.97      2.14
                                1.85      2.14  -1229.32

     nonloc. stress (kbar)   2565.17     -0.12      0.06
                               -0.12   2565.07      0.86
                                0.06      0.86   2566.03

     hartree stress (kbar)    220.83      0.94      0.76
                                0.94    216.38     -2.15
                                0.76     -2.15    207.44

     exc-cor stress (kbar)   -813.49      0.06     -0.03
                                0.06   -813.51     -0.04
                               -0.03     -0.04   -813.53

     corecor stress (kbar)      0.00      0.00      0.00
                                0.00      0.00      0.00
                                0.00      0.00      0.00

     ewald   stress (kbar)  -3004.39      5.92     -3.16
                                5.92  -3012.98     -1.63
                               -3.16     -1.63  -3021.52

     hubbard stress (kbar)      0.00      0.00      0.00
                                0.00      0.00      0.00
                                0.00      0.00      0.00

     london  stress (kbar)      0.00      0.00      0.00
                                0.00      0.00      0.00
                                0.00      0.00      0.00

     DFT-D3  stress (kbar)      0.00      0.00      0.00
                                0.00      0.00      0.00
                                0.00      0.00      0.00

     XDM     stress (kbar)      0.00      0.00      0.00
                                0.00      0.00      0.00
                                0.00      0.00      0.00

     dft-nl  stress (kbar)      0.00      0.00      0.00
                                0.00      0.00      0.00
                                0.00      0.00      0.00

     TS-vdW  stress (kbar)      0.00      0.00      0.00
                                0.00      0.00      0.00
                                0.00      0.00      0.00



     Writing output data file divacancy_optimize4.save

     init_run     :    271.40s CPU    276.22s WALL (       1 calls)
     electrons    :  11662.80s CPU  11939.12s WALL (       1 calls)
     forces       :     88.32s CPU     88.94s WALL (       1 calls)
     stress       :    938.41s CPU    944.97s WALL (       1 calls)

     Called by init_run:
     wfcinit      :    267.99s CPU    272.72s WALL (       1 calls)
     wfcinit:atom :      0.77s CPU      1.62s WALL (       8 calls)
     wfcinit:wfcr :    256.29s CPU    259.20s WALL (       8 calls)
     potinit      :      0.38s CPU      0.41s WALL (       1 calls)

     Called by electrons:
     c_bands      :  10739.25s CPU  11004.13s WALL (      23 calls)
     sum_band     :    915.21s CPU    924.68s WALL (      23 calls)
     v_of_rho     :      6.72s CPU      6.77s WALL (      23 calls)
     v_h          :      0.44s CPU      0.44s WALL (      23 calls)
     v_xc         :      6.28s CPU      6.33s WALL (      23 calls)
     mix_rho      :      1.55s CPU      1.82s WALL (      23 calls)

     Called by c_bands:
     init_us_2    :     38.85s CPU     41.60s WALL (     392 calls)
     cegterg      :  10644.48s CPU  10861.78s WALL (     184 calls)

     Called by sum_band:

     Called by *egterg:
     h_psi        :   6063.70s CPU   6103.26s WALL (     978 calls)
     g_psi        :     14.46s CPU     14.52s WALL (     786 calls)
     cdiaghg      :   1642.34s CPU   1647.22s WALL (     962 calls)
     cegterg:over :   1280.01s CPU   1286.78s WALL (     786 calls)
     cegterg:upda :    787.66s CPU    797.47s WALL (     786 calls)
     cegterg:last :    472.89s CPU    478.32s WALL (     184 calls)

     Called by h_psi:
     h_psi:pot    :   6033.66s CPU   6070.16s WALL (     978 calls)
     h_psi:calbec :   1055.79s CPU   1066.82s WALL (     978 calls)
     vloc_psi     :   3938.19s CPU   3958.82s WALL (     978 calls)
     add_vuspsi   :   1039.67s CPU   1044.52s WALL (     978 calls)

     General routines
     calbec       :   1181.36s CPU   1192.72s WALL (    1018 calls)
     fft          :      4.37s CPU      4.40s WALL (     262 calls)
     fftw         :   4330.52s CPU   4351.50s WALL (  552474 calls)

     Parallel routines
     fft_scatt_xy :    588.30s CPU    591.21s WALL (  552736 calls)
     fft_scatt_yz :   1239.03s CPU   1244.44s WALL (  552736 calls)

     PWSCF        :     3h36m CPU        3h41m WALL


   This run was terminated on:  11:51:30   7Nov2020            

=------------------------------------------------------------------------------=
   JOB DONE.
=------------------------------------------------------------------------------=
