
     Program PWSCF v.6.2 (svn rev. 14038) starts on  7Nov2020 at  8:47:19 

     This program is part of the open-source Quantum ESPRESSO suite
     for quantum simulation of materials; please cite
         "P. Giannozzi et al., J. Phys.:Condens. Matter 21 395502 (2009);
         "P. Giannozzi et al., J. Phys.:Condens. Matter 29 465901 (2017);
          URL http://www.quantum-espresso.org", 
     in publications or presentations arising from this work. More details at
     http://www.quantum-espresso.org/quote

     Parallel version (MPI), running on     8 processors

     MPI processes distributed on     1 nodes
     R & G space division:  proc/nbgrp/npool/nimage =       8
     Waiting for input...
     Reading input from standard input
Warning: card &IONS ignored
Warning: card / ignored

     Current dimensions of program PWSCF are:
     Max number of different atomic species (ntypx) = 10
     Max number of k-points (npk) =  40000
     Max angular momentum in pseudopotentials (lmaxx) =  3

     Subspace diagonalization in iterative solution of the eigenvalue problem:
     a serial algorithm will be used


     Parallelization info
     --------------------
     sticks:   dense  smooth     PW     G-vecs:    dense   smooth      PW
     Min        1600    1600    423               136410   136410   18511
     Max        1601    1601    424               136415   136415   18512
     Sum       12801   12801   3389              1091287  1091287  148093



     bravais-lattice index     =            0
     lattice parameter (alat)  =      30.9637  a.u.
     unit-cell volume          =   29686.4345 (a.u.)^3
     number of atoms/cell      =          224
     number of atomic types    =            2
     number of electrons       =       875.00
     number of Kohn-Sham states=          526
     kinetic-energy cutoff     =      42.0000  Ry
     charge density cutoff     =     168.0000  Ry
     convergence threshold     =      1.0E-08
     mixing beta               =       0.3000
     number of iterations used =            8  plain     mixing
     Exchange-correlation      = SLA-PW-PBX-PBC ( 1  4  3  4 0 0)

     celldm(1)=  30.963688  celldm(2)=   0.000000  celldm(3)=   0.000000
     celldm(4)=   0.000000  celldm(5)=   0.000000  celldm(6)=   0.000000

     crystal axes: (cart. coord. in units of alat)
               a(1) = (   1.000000   0.000000   0.000000 )  
               a(2) = (   0.000000   1.000000   0.000000 )  
               a(3) = (   0.000000   0.000000   1.000000 )  

     reciprocal axes: (cart. coord. in units 2 pi/alat)
               b(1) = (  1.000000  0.000000  0.000000 )  
               b(2) = (  0.000000  1.000000  0.000000 )  
               b(3) = (  0.000000  0.000000  1.000000 )  


     PseudoPot. # 1 for Si read from file:
     ./Si.pbe-hgh.UPF
     MD5 check sum: 9a9f0f6e09139bfdb36b03ff6bc35900
     Pseudo is Norm-conserving, Zval =  4.0
     Generated in analytical, separable form
     Using radial grid of 1141 points,  3 beta functions with: 
                l(1) =   0
                l(2) =   0
                l(3) =   1

     PseudoPot. # 2 for H  read from file:
     ./H.pbe-hgh.UPF
     MD5 check sum: 5f350582108a937bec95f27f5610ab08
     Pseudo is Norm-conserving, Zval =  1.0
     Generated in analytical, separable form
     Using radial grid of  929 points,  0 beta functions with: 

     atomic species   valence    mass     pseudopotential
        Si             4.00    28.08000     Si( 1.00)
        H              1.00     1.00784     H ( 1.00)

     No symmetry found


                                    s                        frac. trans.

      isym =  1     identity                                     

 cryst.   s( 1) = (     1          0          0      )
                  (     0          1          0      )
                  (     0          0          1      )

 cart.    s( 1) = (  1.0000000  0.0000000  0.0000000 )
                  (  0.0000000  1.0000000  0.0000000 )
                  (  0.0000000  0.0000000  1.0000000 )


   Cartesian axes

     site n.     atom                  positions (alat units)
         1           Si  tau(   1) = (   0.9044970   0.9027640   0.9314650  )
         2           Si  tau(   2) = (   0.9811750   0.0241435   0.0262790  )
         3           Si  tau(   3) = (   0.0912784   0.0898374   0.0884684  )
         4           Si  tau(   4) = (   0.1698650   0.1688890   0.9983290  )
         5           Si  tau(   5) = (   0.2512860   0.2513000   0.0835403  )
         6           Si  tau(   6) = (   0.1693210   0.9992790   0.1680020  )
         7           Si  tau(   7) = (   0.2513270   0.0840883   0.2504430  )
         8           Si  tau(   8) = (   0.0021009   0.1687590   0.1694910  )
         9           Si  tau(   9) = (   0.0849397   0.2519320   0.2529980  )
        10           Si  tau(  10) = (   0.0008776   0.0001196   0.3332380  )
        11           Si  tau(  11) = (   0.0839075   0.0837950   0.4160970  )
        12           Si  tau(  12) = (   0.1686210   0.1673220   0.3346350  )
        13           Si  tau(  13) = (   0.2528070   0.2488760   0.4186200  )
        14           Si  tau(  14) = (   0.1662000   0.9992410   0.4981830  )
        15           Si  tau(  15) = (   0.2489470   0.0816436   0.5829950  )
        16           Si  tau(  16) = (   0.0007343   0.1678340   0.4986560  )
        17           Si  tau(  17) = (   0.0833486   0.2515850   0.5820230  )
        18           Si  tau(  18) = (   0.0021774   0.0017020   0.6633130  )
        19           Si  tau(  19) = (   0.0875269   0.0850509   0.7436390  )
        20           Si  tau(  20) = (   0.1685030   0.1697130   0.6631330  )
        21           Si  tau(  21) = (   0.2510020   0.2505900   0.7492380  )
        22           Si  tau(  22) = (   0.1665670   0.0025961   0.8308070  )
        23           Si  tau(  23) = (   0.2507550   0.0833309   0.9155250  )
        24           Si  tau(  24) = (   0.0074180   0.1699220   0.8257110  )
        25           Si  tau(  25) = (   0.0844847   0.2511050   0.9164000  )
        26           Si  tau(  26) = (   0.0010728   0.3346570   0.0000069  )
        27           Si  tau(  27) = (   0.0849543   0.4168080   0.0836152  )
        28           Si  tau(  28) = (   0.1682150   0.4994760   0.9999810  )
        29           Si  tau(  29) = (   0.2512390   0.5822570   0.0837453  )
        30           Si  tau(  30) = (   0.1673790   0.3334700   0.1673920  )
        31           Si  tau(  31) = (   0.2507210   0.4164580   0.2507720  )
        32           Si  tau(  32) = (   0.0011235   0.4995980   0.1669910  )
        33           Si  tau(  33) = (   0.0844555   0.5831890   0.2499700  )
        34           Si  tau(  34) = (   0.0010072   0.3350900   0.3344620  )
        35           Si  tau(  35) = (   0.0850613   0.4174580   0.4171320  )
        36           Si  tau(  36) = (   0.1677720   0.5004640   0.3334130  )
        37           Si  tau(  37) = (   0.2509260   0.5837850   0.4167490  )
        38           Si  tau(  38) = (   0.1685000   0.3335590   0.4995630  )
        39           Si  tau(  39) = (   0.2506760   0.4176460   0.5830960  )
        40           Si  tau(  40) = (   0.0012458   0.5002360   0.5000240  )
        41           Si  tau(  41) = (   0.0843242   0.5835960   0.5829530  )
        42           Si  tau(  42) = (   0.0004920   0.3343620   0.6662460  )
        43           Si  tau(  43) = (   0.0842285   0.4169430   0.7494790  )
        44           Si  tau(  44) = (   0.1673670   0.5005190   0.6663300  )
        45           Si  tau(  45) = (   0.2517180   0.5828300   0.7493210  )
        46           Si  tau(  46) = (   0.1675760   0.3339950   0.8326720  )
        47           Si  tau(  47) = (   0.2511690   0.4167700   0.9162220  )
        48           Si  tau(  48) = (   0.0007404   0.4996130   0.8328440  )
        49           Si  tau(  49) = (   0.0851977   0.5816460   0.9159130  )
        50           Si  tau(  50) = (   0.0036680   0.6637330   0.0015564  )
        51           Si  tau(  51) = (   0.0856126   0.7487430   0.0828051  )
        52           Si  tau(  52) = (   0.1729460   0.8305570   0.0010807  )
        53           Si  tau(  53) = (   0.2529580   0.9173640   0.0840890  )
        54           Si  tau(  54) = (   0.1683870   0.6659920   0.1667080  )
        55           Si  tau(  55) = (   0.2509550   0.7497200   0.2500750  )
        56           Si  tau(  56) = (   0.0033228   0.8310280   0.1663520  )
        57           Si  tau(  57) = (   0.0841740   0.9169650   0.2499630  )
        58           Si  tau(  58) = (   0.0011572   0.6662360   0.3333440  )
        59           Si  tau(  59) = (   0.0845719   0.7497500   0.4162160  )
        60           Si  tau(  60) = (   0.1673290   0.8331310   0.3326360  )
        61           Si  tau(  61) = (   0.2507610   0.9166160   0.4159910  )
        62           Si  tau(  62) = (   0.1676360   0.6669500   0.4999150  )
        63           Si  tau(  63) = (   0.2516730   0.7501760   0.5824110  )
        64           Si  tau(  64) = (   0.0010611   0.8330430   0.4989190  )
        65           Si  tau(  65) = (   0.0843512   0.9161780   0.5819850  )
        66           Si  tau(  66) = (   0.0010038   0.6664600   0.6659430  )
        67           Si  tau(  67) = (   0.0890057   0.7476730   0.7465500  )
        68           Si  tau(  68) = (   0.1690670   0.8338610   0.6650940  )
        69           Si  tau(  69) = (   0.2507350   0.9157390   0.7509440  )
        70           Si  tau(  70) = (   0.1687340   0.6652110   0.8331550  )
        71           Si  tau(  71) = (   0.2538890   0.7463390   0.9157410  )
        72           Si  tau(  72) = (   0.0062374   0.8327710   0.8287040  )
        73           Si  tau(  73) = (   0.0754580   0.9274330   0.9169790  )
        74           Si  tau(  74) = (   0.3343480   0.0004835   0.9991480  )
        75           Si  tau(  75) = (   0.4168140   0.0844549   0.0827297  )
        76           Si  tau(  76) = (   0.4997690   0.1679100   0.9993520  )
        77           Si  tau(  77) = (   0.5835460   0.2505790   0.0825876  )
        78           Si  tau(  78) = (   0.4986610   0.0000993   0.1661510  )
        79           Si  tau(  79) = (   0.5801410   0.0855864   0.2483730  )
        80           Si  tau(  80) = (   0.3336740   0.1673300   0.1664000  )
        81           Si  tau(  81) = (   0.4167280   0.2511880   0.2493220  )
        82           Si  tau(  82) = (   0.3334310   0.9992870   0.3319770  )
        83           Si  tau(  83) = (   0.4188220   0.0820402   0.4132320  )
        84           Si  tau(  84) = (   0.4999570   0.1688700   0.3323470  )
        85           Si  tau(  85) = (   0.5836710   0.2506260   0.4168970  )
        86           Si  tau(  86) = (   0.5008670   0.0001092   0.4971110  )
        87           Si  tau(  87) = (   0.5817340   0.0846520   0.5816430  )
        88           Si  tau(  88) = (   0.3419850   0.1597870   0.5065670  )
        89           Si  tau(  89) = (   0.4186540   0.2542080   0.5846480  )
        90           Si  tau(  90) = (   0.3326220   0.0007435   0.6663850  )
        91           Si  tau(  91) = (   0.4166900   0.0847044   0.7486690  )
        92           Si  tau(  92) = (   0.5003970   0.1685170   0.6662610  )
        93           Si  tau(  93) = (   0.5838040   0.2514240   0.7501240  )
        94           Si  tau(  94) = (   0.4993960   0.0007327   0.8319950  )
        95           Si  tau(  95) = (   0.5820230   0.0845391   0.9155890  )
        96           Si  tau(  96) = (   0.3338200   0.1672180   0.8326860  )
        97           Si  tau(  97) = (   0.4166480   0.2508910   0.9162000  )
        98           Si  tau(  98) = (   0.3340710   0.3340450   0.9999590  )
        99           Si  tau(  99) = (   0.4169870   0.4165720   0.0835042  )
       100           Si  tau( 100) = (   0.4989930   0.4993730   0.9996170  )
       101           Si  tau( 101) = (   0.5811940   0.5806410   0.0842547  )
       102           Si  tau( 102) = (   0.5007000   0.3336910   0.1663310  )
       103           Si  tau( 103) = (   0.5837830   0.4164670   0.2502350  )
       104           Si  tau( 104) = (   0.3340580   0.4993750   0.1673950  )
       105           Si  tau( 105) = (   0.4168230   0.5831950   0.2504190  )
       106           Si  tau( 106) = (   0.3338700   0.3331720   0.3342620  )
       107           Si  tau( 107) = (   0.4172680   0.4175100   0.4165840  )
       108           Si  tau( 108) = (   0.5006800   0.5003000   0.3332570  )
       109           Si  tau( 109) = (   0.5837990   0.5832480   0.4170880  )
       110           Si  tau( 110) = (   0.5014190   0.3353810   0.4996370  )
       111           Si  tau( 111) = (   0.5843480   0.4176090   0.5839290  )
       112           Si  tau( 112) = (   0.3341860   0.5007510   0.4999940  )
       113           Si  tau( 113) = (   0.4176730   0.5838140   0.5832700  )
       114           Si  tau( 114) = (   0.3336280   0.3356250   0.6672910  )
       115           Si  tau( 115) = (   0.4178140   0.4177850   0.7500950  )
       116           Si  tau( 116) = (   0.5010540   0.5010630   0.6669180  )
       117           Si  tau( 117) = (   0.5844200   0.5844510   0.7501590  )
       118           Si  tau( 118) = (   0.5003540   0.3341690   0.8332490  )
       119           Si  tau( 119) = (   0.5830610   0.4183390   0.9158710  )
       120           Si  tau( 120) = (   0.3344690   0.5003550   0.8333710  )
       121           Si  tau( 121) = (   0.4177920   0.5836160   0.9161180  )
       122           Si  tau( 122) = (   0.3353090   0.6650220   0.0011283  )
       123           Si  tau( 123) = (   0.4175150   0.7499600   0.0832469  )
       124           Si  tau( 124) = (   0.5001200   0.8335730   0.9999170  )
       125           Si  tau( 125) = (   0.5825960   0.9171910   0.0836259  )
       126           Si  tau( 126) = (   0.4996360   0.6660170   0.1668040  )
       127           Si  tau( 127) = (   0.5817910   0.7485860   0.2517640  )
       128           Si  tau( 128) = (   0.3345860   0.8326370   0.1669130  )
       129           Si  tau( 129) = (   0.4172690   0.9160990   0.2501050  )
       130           Si  tau( 130) = (   0.3342020   0.6670040   0.3336200  )
       131           Si  tau( 131) = (   0.4174980   0.7503800   0.4169020  )
       132           Si  tau( 132) = (   0.5007090   0.8338200   0.3341600  )
       133           Si  tau( 133) = (   0.5860860   0.9175150   0.4148500  )
       134           Si  tau( 134) = (   0.5008510   0.6671180   0.4999710  )
       135           Si  tau( 135) = (   0.5840970   0.7510620   0.5826180  )
       136           Si  tau( 136) = (   0.3341230   0.8338210   0.4993410  )
       137           Si  tau( 137) = (   0.4165380   0.9182290   0.5819190  )
       138           Si  tau( 138) = (   0.3342780   0.6669860   0.6663580  )
       139           Si  tau( 139) = (   0.4179500   0.7504890   0.7490750  )
       140           Si  tau( 140) = (   0.4998170   0.8346220   0.6648610  )
       141           Si  tau( 141) = (   0.5827670   0.9178260   0.7483390  )
       142           Si  tau( 142) = (   0.5009950   0.6677290   0.8334720  )
       143           Si  tau( 143) = (   0.5843960   0.7504380   0.9175930  )
       144           Si  tau( 144) = (   0.3346580   0.8327380   0.8333790  )
       145           Si  tau( 145) = (   0.4173670   0.9168540   0.9162570  )
       146           Si  tau( 146) = (   0.6647680   0.0034060   0.0014461  )
       147           Si  tau( 147) = (   0.7511110   0.0824092   0.0846593  )
       148           Si  tau( 148) = (   0.8276610   0.1780110   0.0080614  )
       149           Si  tau( 149) = (   0.9199520   0.2552690   0.0883170  )
       150           Si  tau( 150) = (   0.8330630   0.9956120   0.1667760  )
       151           Si  tau( 151) = (   0.9175580   0.0817521   0.2488480  )
       152           Si  tau( 152) = (   0.6662970   0.1668090   0.1663030  )
       153           Si  tau( 153) = (   0.7496340   0.2495670   0.2509520  )
       154           Si  tau( 154) = (   0.6735600   0.0073724   0.3265200  )
       155           Si  tau( 155) = (   0.7518740   0.0857698   0.4190280  )
       156           Si  tau( 156) = (   0.8345880   0.1661580   0.3328140  )
       157           Si  tau( 157) = (   0.9173550   0.2506380   0.4155490  )
       158           Si  tau( 158) = (   0.8343360   0.0003208   0.4998970  )
       159           Si  tau( 159) = (   0.9177030   0.0845046   0.5816620  )
       160           Si  tau( 160) = (   0.6667290   0.1680590   0.5006160  )
       161           Si  tau( 161) = (   0.7505270   0.2520880   0.5824540  )
       162           Si  tau( 162) = (   0.6651240   0.0014818   0.6644370  )
       163           Si  tau( 163) = (   0.7465900   0.0895910   0.7447120  )
       164           Si  tau( 164) = (   0.8345320   0.1688040   0.6639840  )
       165           Si  tau( 165) = (   0.9166060   0.2510780   0.7490850  )
       166           Si  tau( 166) = (   0.8289840   0.0024583   0.8244420  )
       167           Si  tau( 167) = (   0.9322780   0.0712225   0.8986850  )
       168           Si  tau( 168) = (   0.6660950   0.1687100   0.8338360  )
       169           Si  tau( 169) = (   0.7467360   0.2547370   0.9162280  )
       170           Si  tau( 170) = (   0.6650120   0.3364510   0.0005389  )
       171           Si  tau( 171) = (   0.7505900   0.4172050   0.0837500  )
       172           Si  tau( 172) = (   0.8337800   0.4996780   0.9999350  )
       173           Si  tau( 173) = (   0.9173500   0.5818340   0.0836551  )
       174           Si  tau( 174) = (   0.8330880   0.3354760   0.1694200  )
       175           Si  tau( 175) = (   0.9175020   0.4180660   0.2515830  )
       176           Si  tau( 176) = (   0.6669820   0.4997200   0.1670790  )
       177           Si  tau( 177) = (   0.7501440   0.5818460   0.2518060  )
       178           Si  tau( 178) = (   0.6669280   0.3336730   0.3337810  )
       179           Si  tau( 179) = (   0.7502560   0.4168050   0.4171680  )
       180           Si  tau( 180) = (   0.8338520   0.4999960   0.3349470  )
       181           Si  tau( 181) = (   0.9178310   0.5832420   0.4169050  )
       182           Si  tau( 182) = (   0.8343770   0.3339890   0.4990770  )
       183           Si  tau( 183) = (   0.9174550   0.4170470   0.5826070  )
       184           Si  tau( 184) = (   0.6673690   0.5004430   0.5003880  )
       185           Si  tau( 185) = (   0.7506000   0.5837210   0.5834090  )
       186           Si  tau( 186) = (   0.6675810   0.3342380   0.6670740  )
       187           Si  tau( 187) = (   0.7509490   0.4175870   0.7500350  )
       188           Si  tau( 188) = (   0.8340600   0.4999790   0.6658100  )
       189           Si  tau( 189) = (   0.9180290   0.5824180   0.7486040  )
       190           Si  tau( 190) = (   0.8339190   0.3341810   0.8336000  )
       191           Si  tau( 191) = (   0.9174260   0.4170000   0.9166580  )
       192           Si  tau( 192) = (   0.6678170   0.5011190   0.8335500  )
       193           Si  tau( 193) = (   0.7507300   0.5842890   0.9177530  )
       194           Si  tau( 194) = (   0.6642030   0.6639090   0.0020497  )
       195           Si  tau( 195) = (   0.7422020   0.7411530   0.0949703  )
       196           Si  tau( 196) = (   0.8069660   0.8051060   0.9860930  )
       197           Si  tau( 197) = (   0.9138580   0.9079310   0.0830461  )
       198           Si  tau( 198) = (   0.8357700   0.6632870   0.1705150  )
       199           Si  tau( 199) = (   0.9182990   0.7498300   0.2504530  )
       200           Si  tau( 200) = (   0.6627480   0.8336810   0.1700430  )
       201           Si  tau( 201) = (   0.7510620   0.9122970   0.2506540  )
       202           Si  tau( 202) = (   0.6671290   0.6664060   0.3339430  )
       203           Si  tau( 203) = (   0.7507950   0.7492020   0.4172910  )
       204           Si  tau( 204) = (   0.8348600   0.8317270   0.3347030  )
       205           Si  tau( 205) = (   0.9175370   0.9170250   0.4165640  )
       206           Si  tau( 206) = (   0.8343060   0.6660240   0.4999240  )
       207           Si  tau( 207) = (   0.9181230   0.7494400   0.5819710  )
       208           Si  tau( 208) = (   0.6677690   0.8340790   0.4989450  )
       209           Si  tau( 209) = (   0.7501320   0.9178880   0.5826890  )
       210           Si  tau( 210) = (   0.6674260   0.6677440   0.6662050  )
       211           Si  tau( 211) = (   0.7516590   0.7512130   0.7487370  )
       212           Si  tau( 212) = (   0.8342060   0.8331280   0.6633550  )
       213           Si  tau( 213) = (   0.9183880   0.9168560   0.7452010  )
       214           Si  tau( 214) = (   0.8341210   0.6661680   0.8315100  )
       215           Si  tau( 215) = (   0.9236120   0.7453130   0.9138130  )
       216           Si  tau( 216) = (   0.6663490   0.8334660   0.8313560  )
       217           Si  tau( 217) = (   0.7459580   0.9213910   0.9147150  )
       218           H   tau( 218) = (   0.1698350   0.8943370   0.9228350  )
       219           H   tau( 219) = (   0.8968650   0.1574740   0.9393970  )
       220           H   tau( 220) = (   0.8548050   0.8585340   0.8575210  )
       221           H   tau( 221) = (   0.9186140   0.0791019   0.0689670  )
       222           H   tau( 222) = (   0.7299440   0.0604844   0.2656570  )
       223           H   tau( 223) = (   0.7576840   0.7558580   0.9222080  )
       224           H   tau( 224) = (   0.3988490   0.1038830   0.5629920  )

   Crystallographic axes

     site n.     atom                  positions (cryst. coord.)
         1           Si  tau(   1) = (  0.9044970  0.9027640  0.9314650  )
         2           Si  tau(   2) = (  0.9811750  0.0241435  0.0262790  )
         3           Si  tau(   3) = (  0.0912784  0.0898374  0.0884684  )
         4           Si  tau(   4) = (  0.1698650  0.1688890  0.9983290  )
         5           Si  tau(   5) = (  0.2512860  0.2513000  0.0835403  )
         6           Si  tau(   6) = (  0.1693210  0.9992790  0.1680020  )
         7           Si  tau(   7) = (  0.2513270  0.0840883  0.2504430  )
         8           Si  tau(   8) = (  0.0021009  0.1687590  0.1694910  )
         9           Si  tau(   9) = (  0.0849397  0.2519320  0.2529980  )
        10           Si  tau(  10) = (  0.0008776  0.0001196  0.3332380  )
        11           Si  tau(  11) = (  0.0839075  0.0837950  0.4160970  )
        12           Si  tau(  12) = (  0.1686210  0.1673220  0.3346350  )
        13           Si  tau(  13) = (  0.2528070  0.2488760  0.4186200  )
        14           Si  tau(  14) = (  0.1662000  0.9992410  0.4981830  )
        15           Si  tau(  15) = (  0.2489470  0.0816436  0.5829950  )
        16           Si  tau(  16) = (  0.0007343  0.1678340  0.4986560  )
        17           Si  tau(  17) = (  0.0833486  0.2515850  0.5820230  )
        18           Si  tau(  18) = (  0.0021774  0.0017020  0.6633130  )
        19           Si  tau(  19) = (  0.0875269  0.0850509  0.7436390  )
        20           Si  tau(  20) = (  0.1685030  0.1697130  0.6631330  )
        21           Si  tau(  21) = (  0.2510020  0.2505900  0.7492380  )
        22           Si  tau(  22) = (  0.1665670  0.0025961  0.8308070  )
        23           Si  tau(  23) = (  0.2507550  0.0833309  0.9155250  )
        24           Si  tau(  24) = (  0.0074180  0.1699220  0.8257110  )
        25           Si  tau(  25) = (  0.0844847  0.2511050  0.9164000  )
        26           Si  tau(  26) = (  0.0010728  0.3346570  0.0000069  )
        27           Si  tau(  27) = (  0.0849543  0.4168080  0.0836152  )
        28           Si  tau(  28) = (  0.1682150  0.4994760  0.9999810  )
        29           Si  tau(  29) = (  0.2512390  0.5822570  0.0837453  )
        30           Si  tau(  30) = (  0.1673790  0.3334700  0.1673920  )
        31           Si  tau(  31) = (  0.2507210  0.4164580  0.2507720  )
        32           Si  tau(  32) = (  0.0011235  0.4995980  0.1669910  )
        33           Si  tau(  33) = (  0.0844555  0.5831890  0.2499700  )
        34           Si  tau(  34) = (  0.0010072  0.3350900  0.3344620  )
        35           Si  tau(  35) = (  0.0850613  0.4174580  0.4171320  )
        36           Si  tau(  36) = (  0.1677720  0.5004640  0.3334130  )
        37           Si  tau(  37) = (  0.2509260  0.5837850  0.4167490  )
        38           Si  tau(  38) = (  0.1685000  0.3335590  0.4995630  )
        39           Si  tau(  39) = (  0.2506760  0.4176460  0.5830960  )
        40           Si  tau(  40) = (  0.0012458  0.5002360  0.5000240  )
        41           Si  tau(  41) = (  0.0843242  0.5835960  0.5829530  )
        42           Si  tau(  42) = (  0.0004920  0.3343620  0.6662460  )
        43           Si  tau(  43) = (  0.0842285  0.4169430  0.7494790  )
        44           Si  tau(  44) = (  0.1673670  0.5005190  0.6663300  )
        45           Si  tau(  45) = (  0.2517180  0.5828300  0.7493210  )
        46           Si  tau(  46) = (  0.1675760  0.3339950  0.8326720  )
        47           Si  tau(  47) = (  0.2511690  0.4167700  0.9162220  )
        48           Si  tau(  48) = (  0.0007404  0.4996130  0.8328440  )
        49           Si  tau(  49) = (  0.0851977  0.5816460  0.9159130  )
        50           Si  tau(  50) = (  0.0036680  0.6637330  0.0015564  )
        51           Si  tau(  51) = (  0.0856126  0.7487430  0.0828051  )
        52           Si  tau(  52) = (  0.1729460  0.8305570  0.0010807  )
        53           Si  tau(  53) = (  0.2529580  0.9173640  0.0840890  )
        54           Si  tau(  54) = (  0.1683870  0.6659920  0.1667080  )
        55           Si  tau(  55) = (  0.2509550  0.7497200  0.2500750  )
        56           Si  tau(  56) = (  0.0033228  0.8310280  0.1663520  )
        57           Si  tau(  57) = (  0.0841740  0.9169650  0.2499630  )
        58           Si  tau(  58) = (  0.0011572  0.6662360  0.3333440  )
        59           Si  tau(  59) = (  0.0845719  0.7497500  0.4162160  )
        60           Si  tau(  60) = (  0.1673290  0.8331310  0.3326360  )
        61           Si  tau(  61) = (  0.2507610  0.9166160  0.4159910  )
        62           Si  tau(  62) = (  0.1676360  0.6669500  0.4999150  )
        63           Si  tau(  63) = (  0.2516730  0.7501760  0.5824110  )
        64           Si  tau(  64) = (  0.0010611  0.8330430  0.4989190  )
        65           Si  tau(  65) = (  0.0843512  0.9161780  0.5819850  )
        66           Si  tau(  66) = (  0.0010038  0.6664600  0.6659430  )
        67           Si  tau(  67) = (  0.0890057  0.7476730  0.7465500  )
        68           Si  tau(  68) = (  0.1690670  0.8338610  0.6650940  )
        69           Si  tau(  69) = (  0.2507350  0.9157390  0.7509440  )
        70           Si  tau(  70) = (  0.1687340  0.6652110  0.8331550  )
        71           Si  tau(  71) = (  0.2538890  0.7463390  0.9157410  )
        72           Si  tau(  72) = (  0.0062374  0.8327710  0.8287040  )
        73           Si  tau(  73) = (  0.0754580  0.9274330  0.9169790  )
        74           Si  tau(  74) = (  0.3343480  0.0004835  0.9991480  )
        75           Si  tau(  75) = (  0.4168140  0.0844549  0.0827297  )
        76           Si  tau(  76) = (  0.4997690  0.1679100  0.9993520  )
        77           Si  tau(  77) = (  0.5835460  0.2505790  0.0825876  )
        78           Si  tau(  78) = (  0.4986610  0.0000993  0.1661510  )
        79           Si  tau(  79) = (  0.5801410  0.0855864  0.2483730  )
        80           Si  tau(  80) = (  0.3336740  0.1673300  0.1664000  )
        81           Si  tau(  81) = (  0.4167280  0.2511880  0.2493220  )
        82           Si  tau(  82) = (  0.3334310  0.9992870  0.3319770  )
        83           Si  tau(  83) = (  0.4188220  0.0820402  0.4132320  )
        84           Si  tau(  84) = (  0.4999570  0.1688700  0.3323470  )
        85           Si  tau(  85) = (  0.5836710  0.2506260  0.4168970  )
        86           Si  tau(  86) = (  0.5008670  0.0001092  0.4971110  )
        87           Si  tau(  87) = (  0.5817340  0.0846520  0.5816430  )
        88           Si  tau(  88) = (  0.3419850  0.1597870  0.5065670  )
        89           Si  tau(  89) = (  0.4186540  0.2542080  0.5846480  )
        90           Si  tau(  90) = (  0.3326220  0.0007435  0.6663850  )
        91           Si  tau(  91) = (  0.4166900  0.0847044  0.7486690  )
        92           Si  tau(  92) = (  0.5003970  0.1685170  0.6662610  )
        93           Si  tau(  93) = (  0.5838040  0.2514240  0.7501240  )
        94           Si  tau(  94) = (  0.4993960  0.0007327  0.8319950  )
        95           Si  tau(  95) = (  0.5820230  0.0845391  0.9155890  )
        96           Si  tau(  96) = (  0.3338200  0.1672180  0.8326860  )
        97           Si  tau(  97) = (  0.4166480  0.2508910  0.9162000  )
        98           Si  tau(  98) = (  0.3340710  0.3340450  0.9999590  )
        99           Si  tau(  99) = (  0.4169870  0.4165720  0.0835042  )
       100           Si  tau( 100) = (  0.4989930  0.4993730  0.9996170  )
       101           Si  tau( 101) = (  0.5811940  0.5806410  0.0842547  )
       102           Si  tau( 102) = (  0.5007000  0.3336910  0.1663310  )
       103           Si  tau( 103) = (  0.5837830  0.4164670  0.2502350  )
       104           Si  tau( 104) = (  0.3340580  0.4993750  0.1673950  )
       105           Si  tau( 105) = (  0.4168230  0.5831950  0.2504190  )
       106           Si  tau( 106) = (  0.3338700  0.3331720  0.3342620  )
       107           Si  tau( 107) = (  0.4172680  0.4175100  0.4165840  )
       108           Si  tau( 108) = (  0.5006800  0.5003000  0.3332570  )
       109           Si  tau( 109) = (  0.5837990  0.5832480  0.4170880  )
       110           Si  tau( 110) = (  0.5014190  0.3353810  0.4996370  )
       111           Si  tau( 111) = (  0.5843480  0.4176090  0.5839290  )
       112           Si  tau( 112) = (  0.3341860  0.5007510  0.4999940  )
       113           Si  tau( 113) = (  0.4176730  0.5838140  0.5832700  )
       114           Si  tau( 114) = (  0.3336280  0.3356250  0.6672910  )
       115           Si  tau( 115) = (  0.4178140  0.4177850  0.7500950  )
       116           Si  tau( 116) = (  0.5010540  0.5010630  0.6669180  )
       117           Si  tau( 117) = (  0.5844200  0.5844510  0.7501590  )
       118           Si  tau( 118) = (  0.5003540  0.3341690  0.8332490  )
       119           Si  tau( 119) = (  0.5830610  0.4183390  0.9158710  )
       120           Si  tau( 120) = (  0.3344690  0.5003550  0.8333710  )
       121           Si  tau( 121) = (  0.4177920  0.5836160  0.9161180  )
       122           Si  tau( 122) = (  0.3353090  0.6650220  0.0011283  )
       123           Si  tau( 123) = (  0.4175150  0.7499600  0.0832469  )
       124           Si  tau( 124) = (  0.5001200  0.8335730  0.9999170  )
       125           Si  tau( 125) = (  0.5825960  0.9171910  0.0836259  )
       126           Si  tau( 126) = (  0.4996360  0.6660170  0.1668040  )
       127           Si  tau( 127) = (  0.5817910  0.7485860  0.2517640  )
       128           Si  tau( 128) = (  0.3345860  0.8326370  0.1669130  )
       129           Si  tau( 129) = (  0.4172690  0.9160990  0.2501050  )
       130           Si  tau( 130) = (  0.3342020  0.6670040  0.3336200  )
       131           Si  tau( 131) = (  0.4174980  0.7503800  0.4169020  )
       132           Si  tau( 132) = (  0.5007090  0.8338200  0.3341600  )
       133           Si  tau( 133) = (  0.5860860  0.9175150  0.4148500  )
       134           Si  tau( 134) = (  0.5008510  0.6671180  0.4999710  )
       135           Si  tau( 135) = (  0.5840970  0.7510620  0.5826180  )
       136           Si  tau( 136) = (  0.3341230  0.8338210  0.4993410  )
       137           Si  tau( 137) = (  0.4165380  0.9182290  0.5819190  )
       138           Si  tau( 138) = (  0.3342780  0.6669860  0.6663580  )
       139           Si  tau( 139) = (  0.4179500  0.7504890  0.7490750  )
       140           Si  tau( 140) = (  0.4998170  0.8346220  0.6648610  )
       141           Si  tau( 141) = (  0.5827670  0.9178260  0.7483390  )
       142           Si  tau( 142) = (  0.5009950  0.6677290  0.8334720  )
       143           Si  tau( 143) = (  0.5843960  0.7504380  0.9175930  )
       144           Si  tau( 144) = (  0.3346580  0.8327380  0.8333790  )
       145           Si  tau( 145) = (  0.4173670  0.9168540  0.9162570  )
       146           Si  tau( 146) = (  0.6647680  0.0034060  0.0014461  )
       147           Si  tau( 147) = (  0.7511110  0.0824092  0.0846593  )
       148           Si  tau( 148) = (  0.8276610  0.1780110  0.0080614  )
       149           Si  tau( 149) = (  0.9199520  0.2552690  0.0883170  )
       150           Si  tau( 150) = (  0.8330630  0.9956120  0.1667760  )
       151           Si  tau( 151) = (  0.9175580  0.0817521  0.2488480  )
       152           Si  tau( 152) = (  0.6662970  0.1668090  0.1663030  )
       153           Si  tau( 153) = (  0.7496340  0.2495670  0.2509520  )
       154           Si  tau( 154) = (  0.6735600  0.0073724  0.3265200  )
       155           Si  tau( 155) = (  0.7518740  0.0857698  0.4190280  )
       156           Si  tau( 156) = (  0.8345880  0.1661580  0.3328140  )
       157           Si  tau( 157) = (  0.9173550  0.2506380  0.4155490  )
       158           Si  tau( 158) = (  0.8343360  0.0003208  0.4998970  )
       159           Si  tau( 159) = (  0.9177030  0.0845046  0.5816620  )
       160           Si  tau( 160) = (  0.6667290  0.1680590  0.5006160  )
       161           Si  tau( 161) = (  0.7505270  0.2520880  0.5824540  )
       162           Si  tau( 162) = (  0.6651240  0.0014818  0.6644370  )
       163           Si  tau( 163) = (  0.7465900  0.0895910  0.7447120  )
       164           Si  tau( 164) = (  0.8345320  0.1688040  0.6639840  )
       165           Si  tau( 165) = (  0.9166060  0.2510780  0.7490850  )
       166           Si  tau( 166) = (  0.8289840  0.0024583  0.8244420  )
       167           Si  tau( 167) = (  0.9322780  0.0712225  0.8986850  )
       168           Si  tau( 168) = (  0.6660950  0.1687100  0.8338360  )
       169           Si  tau( 169) = (  0.7467360  0.2547370  0.9162280  )
       170           Si  tau( 170) = (  0.6650120  0.3364510  0.0005389  )
       171           Si  tau( 171) = (  0.7505900  0.4172050  0.0837500  )
       172           Si  tau( 172) = (  0.8337800  0.4996780  0.9999350  )
       173           Si  tau( 173) = (  0.9173500  0.5818340  0.0836551  )
       174           Si  tau( 174) = (  0.8330880  0.3354760  0.1694200  )
       175           Si  tau( 175) = (  0.9175020  0.4180660  0.2515830  )
       176           Si  tau( 176) = (  0.6669820  0.4997200  0.1670790  )
       177           Si  tau( 177) = (  0.7501440  0.5818460  0.2518060  )
       178           Si  tau( 178) = (  0.6669280  0.3336730  0.3337810  )
       179           Si  tau( 179) = (  0.7502560  0.4168050  0.4171680  )
       180           Si  tau( 180) = (  0.8338520  0.4999960  0.3349470  )
       181           Si  tau( 181) = (  0.9178310  0.5832420  0.4169050  )
       182           Si  tau( 182) = (  0.8343770  0.3339890  0.4990770  )
       183           Si  tau( 183) = (  0.9174550  0.4170470  0.5826070  )
       184           Si  tau( 184) = (  0.6673690  0.5004430  0.5003880  )
       185           Si  tau( 185) = (  0.7506000  0.5837210  0.5834090  )
       186           Si  tau( 186) = (  0.6675810  0.3342380  0.6670740  )
       187           Si  tau( 187) = (  0.7509490  0.4175870  0.7500350  )
       188           Si  tau( 188) = (  0.8340600  0.4999790  0.6658100  )
       189           Si  tau( 189) = (  0.9180290  0.5824180  0.7486040  )
       190           Si  tau( 190) = (  0.8339190  0.3341810  0.8336000  )
       191           Si  tau( 191) = (  0.9174260  0.4170000  0.9166580  )
       192           Si  tau( 192) = (  0.6678170  0.5011190  0.8335500  )
       193           Si  tau( 193) = (  0.7507300  0.5842890  0.9177530  )
       194           Si  tau( 194) = (  0.6642030  0.6639090  0.0020497  )
       195           Si  tau( 195) = (  0.7422020  0.7411530  0.0949703  )
       196           Si  tau( 196) = (  0.8069660  0.8051060  0.9860930  )
       197           Si  tau( 197) = (  0.9138580  0.9079310  0.0830461  )
       198           Si  tau( 198) = (  0.8357700  0.6632870  0.1705150  )
       199           Si  tau( 199) = (  0.9182990  0.7498300  0.2504530  )
       200           Si  tau( 200) = (  0.6627480  0.8336810  0.1700430  )
       201           Si  tau( 201) = (  0.7510620  0.9122970  0.2506540  )
       202           Si  tau( 202) = (  0.6671290  0.6664060  0.3339430  )
       203           Si  tau( 203) = (  0.7507950  0.7492020  0.4172910  )
       204           Si  tau( 204) = (  0.8348600  0.8317270  0.3347030  )
       205           Si  tau( 205) = (  0.9175370  0.9170250  0.4165640  )
       206           Si  tau( 206) = (  0.8343060  0.6660240  0.4999240  )
       207           Si  tau( 207) = (  0.9181230  0.7494400  0.5819710  )
       208           Si  tau( 208) = (  0.6677690  0.8340790  0.4989450  )
       209           Si  tau( 209) = (  0.7501320  0.9178880  0.5826890  )
       210           Si  tau( 210) = (  0.6674260  0.6677440  0.6662050  )
       211           Si  tau( 211) = (  0.7516590  0.7512130  0.7487370  )
       212           Si  tau( 212) = (  0.8342060  0.8331280  0.6633550  )
       213           Si  tau( 213) = (  0.9183880  0.9168560  0.7452010  )
       214           Si  tau( 214) = (  0.8341210  0.6661680  0.8315100  )
       215           Si  tau( 215) = (  0.9236120  0.7453130  0.9138130  )
       216           Si  tau( 216) = (  0.6663490  0.8334660  0.8313560  )
       217           Si  tau( 217) = (  0.7459580  0.9213910  0.9147150  )
       218           H   tau( 218) = (  0.1698350  0.8943370  0.9228350  )
       219           H   tau( 219) = (  0.8968650  0.1574740  0.9393970  )
       220           H   tau( 220) = (  0.8548050  0.8585340  0.8575210  )
       221           H   tau( 221) = (  0.9186140  0.0791019  0.0689670  )
       222           H   tau( 222) = (  0.7299440  0.0604844  0.2656570  )
       223           H   tau( 223) = (  0.7576840  0.7558580  0.9222080  )
       224           H   tau( 224) = (  0.3988490  0.1038830  0.5629920  )

     number of k points=     8  Marzari-Vanderbilt smearing, width (Ry)=  0.0500
                       cart. coord. in units 2pi/alat
        k(    1) = (   0.0000000   0.0000000   0.0000000), wk =   0.2500000
        k(    2) = (   0.0000000   0.0000000  -0.5000000), wk =   0.2500000
        k(    3) = (   0.0000000  -0.5000000  -0.5000000), wk =   0.2500000
        k(    4) = (  -0.5000000  -0.5000000  -0.5000000), wk =   0.2500000
        k(    5) = (  -0.5000000   0.0000000   0.0000000), wk =   0.2500000
        k(    6) = (   0.0000000  -0.5000000   0.0000000), wk =   0.2500000
        k(    7) = (  -0.5000000   0.0000000   0.5000000), wk =   0.2500000
        k(    8) = (  -0.5000000   0.5000000   0.0000000), wk =   0.2500000

                       cryst. coord.
        k(    1) = (   0.0000000   0.0000000   0.0000000), wk =   0.2500000
        k(    2) = (   0.0000000   0.0000000  -0.5000000), wk =   0.2500000
        k(    3) = (   0.0000000  -0.5000000  -0.5000000), wk =   0.2500000
        k(    4) = (  -0.5000000  -0.5000000  -0.5000000), wk =   0.2500000
        k(    5) = (  -0.5000000   0.0000000   0.0000000), wk =   0.2500000
        k(    6) = (   0.0000000  -0.5000000   0.0000000), wk =   0.2500000
        k(    7) = (  -0.5000000   0.0000000   0.5000000), wk =   0.2500000
        k(    8) = (  -0.5000000   0.5000000   0.0000000), wk =   0.2500000

     Dense  grid:  1091287 G-vectors     FFT dimensions: ( 128, 128, 128)

     Dynamical RAM for                 wfc:     136.89 MB

     Dynamical RAM for     wfc (w. buffer):    1232.04 MB

     Dynamical RAM for           str. fact:       4.16 MB

     Dynamical RAM for           local pot:       0.00 MB

     Dynamical RAM for          nlocal pot:     282.38 MB

     Dynamical RAM for                qrad:       1.76 MB

     Dynamical RAM for          rho,v,vnew:      12.24 MB

     Dynamical RAM for               rhoin:       4.08 MB

     Dynamical RAM for            rho*nmix:      33.30 MB

     Dynamical RAM for           G-vectors:       8.85 MB

     Dynamical RAM for          h,s,v(r/c):     202.64 MB

     Dynamical RAM for          <psi|beta>:       8.71 MB

     Dynamical RAM for                 psi:     547.57 MB

     Dynamical RAM for                hpsi:     547.57 MB

     Dynamical RAM for      wfcinit/wfcrot:     472.97 MB

     Estimated static dynamical RAM per process >       1.56 GB

     Estimated max dynamical RAM per process >       2.83 GB

     Estimated total dynamical RAM >      22.67 GB

     Initial potential from superposition of free atoms

     starting charge  874.87857, renormalised to  875.00000
     Starting wfc are  875 randomized atomic wfcs

     total cpu time spent up to now is      301.5 secs

     Self-consistent Calculation

     iteration #  1     ecut=    42.00 Ry     beta= 0.30
     Davidson diagonalization with overlap
     ethr =  1.00E-02,  avg # of iterations =  3.0

     Threshold (ethr) on eigenvalues was too large:
     Diagonalizing with lowered threshold

     Davidson diagonalization with overlap
     ethr =  7.46E-04,  avg # of iterations =  4.5

     total cpu time spent up to now is     1523.2 secs

     total energy              =   -1716.75700819 Ry
     Harris-Foulkes estimate   =   -1717.74265200 Ry
     estimated scf accuracy    <       6.38528099 Ry

     iteration #  2     ecut=    42.00 Ry     beta= 0.30
     Davidson diagonalization with overlap
     ethr =  7.30E-04,  avg # of iterations =  3.0

     total cpu time spent up to now is     1946.0 secs

     total energy              =   -1716.24985190 Ry
     Harris-Foulkes estimate   =   -1716.92412500 Ry
     estimated scf accuracy    <       2.94536677 Ry

     iteration #  3     ecut=    42.00 Ry     beta= 0.30
     Davidson diagonalization with overlap
     ethr =  3.37E-04,  avg # of iterations =  7.4

     total cpu time spent up to now is     2611.9 secs

     total energy              =   -1715.75421904 Ry
     Harris-Foulkes estimate   =   -1717.09794344 Ry
     estimated scf accuracy    <       8.25459914 Ry

     iteration #  4     ecut=    42.00 Ry     beta= 0.30
     Davidson diagonalization with overlap
     ethr =  3.37E-04,  avg # of iterations =  5.2

     total cpu time spent up to now is     3187.2 secs

     total energy              =   -1716.40010266 Ry
     Harris-Foulkes estimate   =   -1716.48424962 Ry
     estimated scf accuracy    <       0.47951401 Ry

     iteration #  5     ecut=    42.00 Ry     beta= 0.30
     Davidson diagonalization with overlap
     ethr =  5.48E-05,  avg # of iterations =  8.4

     total cpu time spent up to now is     3794.5 secs

     total energy              =   -1716.43482849 Ry
     Harris-Foulkes estimate   =   -1716.47084563 Ry
     estimated scf accuracy    <       0.19986119 Ry

     iteration #  6     ecut=    42.00 Ry     beta= 0.30
     Davidson diagonalization with overlap
     ethr =  2.28E-05,  avg # of iterations =  7.5

     total cpu time spent up to now is     4347.9 secs

     total energy              =   -1716.45323708 Ry
     Harris-Foulkes estimate   =   -1716.45688358 Ry
     estimated scf accuracy    <       0.02367618 Ry

     iteration #  7     ecut=    42.00 Ry     beta= 0.30
     Davidson diagonalization with overlap
     c_bands:  1 eigenvalues not converged
     ethr =  2.71E-06,  avg # of iterations = 12.8

     total cpu time spent up to now is     5167.8 secs

     total energy              =   -1716.45499953 Ry
     Harris-Foulkes estimate   =   -1716.45670699 Ry
     estimated scf accuracy    <       0.01021747 Ry

     iteration #  8     ecut=    42.00 Ry     beta= 0.30
     Davidson diagonalization with overlap
     ethr =  1.17E-06,  avg # of iterations =  8.0

     total cpu time spent up to now is     5750.7 secs

     total energy              =   -1716.45557716 Ry
     Harris-Foulkes estimate   =   -1716.45629857 Ry
     estimated scf accuracy    <       0.00372365 Ry

     iteration #  9     ecut=    42.00 Ry     beta= 0.30
     Davidson diagonalization with overlap
     ethr =  4.26E-07,  avg # of iterations =  3.5

     total cpu time spent up to now is     6226.0 secs

     total energy              =   -1716.45591091 Ry
     Harris-Foulkes estimate   =   -1716.45618171 Ry
     estimated scf accuracy    <       0.00140389 Ry

     iteration # 10     ecut=    42.00 Ry     beta= 0.30
     Davidson diagonalization with overlap
     ethr =  1.60E-07,  avg # of iterations =  3.1

     total cpu time spent up to now is     6678.0 secs

     total energy              =   -1716.45604575 Ry
     Harris-Foulkes estimate   =   -1716.45610900 Ry
     estimated scf accuracy    <       0.00030520 Ry

     iteration # 11     ecut=    42.00 Ry     beta= 0.30
     Davidson diagonalization with overlap
     ethr =  3.49E-08,  avg # of iterations =  3.4

     total cpu time spent up to now is     7158.0 secs

     total energy              =   -1716.45607819 Ry
     Harris-Foulkes estimate   =   -1716.45611130 Ry
     estimated scf accuracy    <       0.00018489 Ry

     iteration # 12     ecut=    42.00 Ry     beta= 0.30
     Davidson diagonalization with overlap
     ethr =  2.11E-08,  avg # of iterations =  3.0

     total cpu time spent up to now is     7603.0 secs

     total energy              =   -1716.45609966 Ry
     Harris-Foulkes estimate   =   -1716.45609950 Ry
     estimated scf accuracy    <       0.00001582 Ry

     iteration # 13     ecut=    42.00 Ry     beta= 0.30
     Davidson diagonalization with overlap
     ethr =  1.81E-09,  avg # of iterations =  3.8

     total cpu time spent up to now is     8112.9 secs

     total energy              =   -1716.45610267 Ry
     Harris-Foulkes estimate   =   -1716.45610273 Ry
     estimated scf accuracy    <       0.00000662 Ry

     iteration # 14     ecut=    42.00 Ry     beta= 0.30
     Davidson diagonalization with overlap
     ethr =  7.57E-10,  avg # of iterations =  3.0

     total cpu time spent up to now is     8550.7 secs

     total energy              =   -1716.45610450 Ry
     Harris-Foulkes estimate   =   -1716.45610356 Ry
     estimated scf accuracy    <       0.00000197 Ry

     iteration # 15     ecut=    42.00 Ry     beta= 0.30
     Davidson diagonalization with overlap
     ethr =  2.25E-10,  avg # of iterations =  3.5

     total cpu time spent up to now is     8987.0 secs

     total energy              =   -1716.45610494 Ry
     Harris-Foulkes estimate   =   -1716.45610480 Ry
     estimated scf accuracy    <       0.00000100 Ry

     iteration # 16     ecut=    42.00 Ry     beta= 0.30
     Davidson diagonalization with overlap
     ethr =  1.14E-10,  avg # of iterations =  3.4

     total cpu time spent up to now is     9438.3 secs

     total energy              =   -1716.45610526 Ry
     Harris-Foulkes estimate   =   -1716.45610509 Ry
     estimated scf accuracy    <       0.00000036 Ry

     iteration # 17     ecut=    42.00 Ry     beta= 0.30
     Davidson diagonalization with overlap
     ethr =  4.13E-11,  avg # of iterations =  3.4

     total cpu time spent up to now is     9894.7 secs

     total energy              =   -1716.45610534 Ry
     Harris-Foulkes estimate   =   -1716.45610532 Ry
     estimated scf accuracy    <       0.00000018 Ry

     iteration # 18     ecut=    42.00 Ry     beta= 0.30
     Davidson diagonalization with overlap
     ethr =  2.10E-11,  avg # of iterations =  3.4

     total cpu time spent up to now is    10322.9 secs

     total energy              =   -1716.45610538 Ry
     Harris-Foulkes estimate   =   -1716.45610537 Ry
     estimated scf accuracy    <       0.00000007 Ry

     iteration # 19     ecut=    42.00 Ry     beta= 0.30
     Davidson diagonalization with overlap
     ethr =  7.75E-12,  avg # of iterations =  3.0

     total cpu time spent up to now is    10739.1 secs

     total energy              =   -1716.45610539 Ry
     Harris-Foulkes estimate   =   -1716.45610539 Ry
     estimated scf accuracy    <       0.00000004 Ry

     iteration # 20     ecut=    42.00 Ry     beta= 0.30
     Davidson diagonalization with overlap
     ethr =  4.18E-12,  avg # of iterations =  3.0

     total cpu time spent up to now is    11155.4 secs

     total energy              =   -1716.45610540 Ry
     Harris-Foulkes estimate   =   -1716.45610540 Ry
     estimated scf accuracy    <       0.00000002 Ry

     iteration # 21     ecut=    42.00 Ry     beta= 0.30
     Davidson diagonalization with overlap
     ethr =  2.43E-12,  avg # of iterations =  3.2

     total cpu time spent up to now is    11577.2 secs

     End of self-consistent calculation

          k = 0.0000 0.0000 0.0000 (136411 PWs)   bands (ev):

    -6.3990  -5.7011  -5.4323  -5.4176  -5.3299  -5.3027  -5.2624  -5.1417
    -5.0132  -4.9882  -4.9083  -4.9009  -4.8454  -4.8375  -4.8195  -4.8079
    -4.7973  -4.7951  -4.7934  -4.5594  -4.5286  -4.4667  -4.4398  -4.4202
    -4.4057  -4.3940  -4.3790  -4.1399  -4.1016  -4.0230  -3.9482  -3.9258
    -3.9103  -3.8081  -3.7933  -3.7098  -3.6750  -3.6524  -3.6394  -3.6208
    -3.5718  -3.5499  -3.5292  -3.5162  -3.5089  -3.4982  -3.4914  -3.4864
    -3.4838  -3.4832  -3.4810  -3.4767  -3.4737  -3.4718  -3.4683  -3.4640
    -3.4516  -3.3894  -3.3799  -3.3706  -3.3599  -3.3429  -3.3341  -3.3205
    -3.3141  -3.3116  -3.3034  -3.3009  -3.2979  -3.2923  -3.2848  -3.2791
    -3.2766  -3.2739  -3.2729  -3.2668  -3.2648  -3.2636  -3.2590  -3.2554
    -3.2469  -2.6345  -2.6312  -2.6098  -2.5864  -2.5819  -2.5726  -2.5517
    -2.5456  -2.5369  -2.5294  -2.5225  -2.5117  -2.0288  -1.9852  -1.8645
    -1.7578  -1.7479  -1.7206  -1.7072  -1.6636  -1.6377  -1.6115  -1.6062
    -1.6024  -1.5990  -1.5829  -1.5782  -1.5755  -1.5595  -1.5524  -1.5445
    -1.5384  -1.5324  -1.5283  -1.5247  -1.5238  -1.5207  -1.5178  -1.5130
    -1.5106  -1.5063  -1.5006  -1.3986  -1.0702  -1.0091  -0.8642  -0.8067
    -0.7863  -0.7468  -0.6763  -0.6712  -0.6464  -0.6305  -0.6216  -0.6128
    -0.5943  -0.5828  -0.5688  -0.5419  -0.5106  -0.4966  -0.4726  -0.4656
    -0.4588  -0.4459  -0.4398  -0.4296  -0.4248  -0.4210  -0.4184  -0.4159
    -0.4146  -0.4123  -0.4083  -0.4063  -0.4011  -0.3989  -0.3897   0.1028
     0.2212   0.2704   0.3238   0.3345   0.3766   0.4025   0.4189   0.4218
     0.4474   0.4571   0.4699   0.4780   0.4822   0.4867   0.4886   0.4933
     0.4972   0.5007   0.5019   0.5053   0.5107   0.5161   0.5204   0.5349
     0.6132   0.6727   0.7317   0.7665   0.8014   0.8095   0.8210   0.8592
     0.9594   1.0565   1.0721   1.0944   1.1006   1.1037   1.1273   1.2473
     1.3609   1.5279   1.5693   1.6410   1.6765   1.7521   1.7647   1.7734
     1.7806   1.7869   1.8693   1.9556   2.0366   2.0411   2.1309   2.1465
     2.2227   2.2429   2.2720   2.3493   2.3583   2.3743   2.3834   2.3961
     2.4008   2.4058   2.4121   2.4163   2.4184   2.4395   2.4483   2.4521
     2.4747   2.4950   2.5057   2.5113   2.5136   2.5236   2.5294   2.5367
     2.5421   2.5434   2.5496   2.5497   2.5553   2.5578   2.5630   2.5656
     2.5689   2.5728   2.5771   2.5791   2.5848   2.5877   2.5909   2.5951
     2.5977   2.5979   2.6025   2.6066   2.6105   2.6121   2.6150   2.6178
     2.6207   2.6240   2.6376   2.6420   2.6699   3.0377   3.0622   3.0799
     3.1199   3.1255   3.1947   3.1992   3.2175   3.2334   3.2499   3.2767
     3.2855   3.2868   3.2911   3.3174   3.3241   3.3336   3.3385   3.3479
     3.3512   3.3580   3.3620   3.3682   3.3763   3.3794   3.3806   3.3841
     3.3917   3.3960   3.3990   3.4973   3.5071   3.5295   3.5688   3.5808
     3.5950   3.6164   3.6245   3.6449   3.6550   3.6759   3.6905   3.6975
     3.7013   3.7110   3.7160   3.7179   3.7213   3.7276   3.7319   3.7326
     3.7403   3.7482   3.7528   3.7588   3.7678   3.7714   3.7871   3.7947
     3.7968   3.8016   3.8146   3.8246   3.8311   3.8342   3.8403   3.8430
     3.8491   3.8546   3.8573   3.8623   3.8654   3.8702   3.8718   3.8802
     3.8834   3.8974   3.9040   3.9870   3.9955   4.0072   4.0092   4.0138
     4.0189   4.0204   4.0266   4.0327   4.0348   4.0381   4.0430   4.0470
     4.0503   4.0568   4.0595   4.0811   4.1011   4.2458   4.2578   4.2954
     4.2978   4.3026   4.3133   4.3148   4.3209   4.3235   4.3262   4.3346
     4.3388   4.3477   4.3527   4.3689   4.3744   4.3760   4.3848   4.3943
     4.3989   4.4010   4.4073   4.4085   4.4164   4.6724   4.7717   4.8057
     4.8431   4.8608   4.8769   4.8887   4.9116   4.9195   4.9423   4.9466
     4.9519   4.9736   5.0086   5.0385   5.0700   5.0767   5.0873   5.0905
     5.0932   5.1039   5.1088   5.1115   5.1200   5.1261   5.1299   5.1324
     5.1377   5.1497   5.2363   5.3102   5.4635   5.4879   5.5028   5.5211
     5.5319   5.5376   5.5390   5.5461   5.5543   5.5619   5.5687   5.6446
     5.7453   5.9189   6.0370   6.1041   6.1260   6.1735   6.5437   6.6240
     6.7591   6.8297   6.8529   6.8665   6.8725   6.9244   6.9453   7.0139
     7.0761   7.1608   7.2155   7.2979   7.4877   7.5017   7.5308   7.6023
     7.6334   7.6600   7.6786   7.6877   7.6978   7.7075   7.7287   7.7363
     7.7434   7.7559   7.7667   7.7751   7.7939   7.8000   7.8050   7.8191
     7.8245   7.8475   7.8886   7.9179   7.9382   7.9827   7.9946   8.0001
     8.0255   8.0359   8.0496   8.0631   8.0710   8.0882   8.0909   8.1020
     8.1116   8.1139   8.1159   8.1203   8.1265   8.1324   8.1387   8.1449
     8.1507   8.1573   8.1706   8.1910   8.3298   8.3414   8.4101   8.4502
     8.4796   8.4872   8.5241   8.5666   8.5862   8.6280   8.6478   8.6802
     8.7186   8.7495   8.7577   8.7748   8.7957   8.8007   8.8138   8.8240
     8.8297   8.8334   8.8427   8.8460   8.8523   8.8641

     occupation numbers 
     1.0000   1.0000   1.0000   1.0000   1.0000   1.0000   1.0000   1.0000
     1.0000   1.0000   1.0000   1.0000   1.0000   1.0000   1.0000   1.0000
     1.0000   1.0000   1.0000   1.0000   1.0000   1.0000   1.0000   1.0000
     1.0000   1.0000   1.0000   1.0000   1.0000   1.0000   1.0000   1.0000
     1.0000   1.0000   1.0000   1.0000   1.0000   1.0000   1.0000   1.0000
     1.0000   1.0000   1.0000   1.0000   1.0000   1.0000   1.0000   1.0000
     1.0000   1.0000   1.0000   1.0000   1.0000   1.0000   1.0000   1.0000
     1.0000   1.0000   1.0000   1.0000   1.0000   1.0000   1.0000   1.0000
     1.0000   1.0000   1.0000   1.0000   1.0000   1.0000   1.0000   1.0000
     1.0000   1.0000   1.0000   1.0000   1.0000   1.0000   1.0000   1.0000
     1.0000   1.0000   1.0000   1.0000   1.0000   1.0000   1.0000   1.0000
     1.0000   1.0000   1.0000   1.0000   1.0000   1.0000   1.0000   1.0000
     1.0000   1.0000   1.0000   1.0000   1.0000   1.0000   1.0000   1.0000
     1.0000   1.0000   1.0000   1.0000   1.0000   1.0000   1.0000   1.0000
     1.0000   1.0000   1.0000   1.0000   1.0000   1.0000   1.0000   1.0000
     1.0000   1.0000   1.0000   1.0000   1.0000   1.0000   1.0000   1.0000
     1.0000   1.0000   1.0000   1.0000   1.0000   1.0000   1.0000   1.0000
     1.0000   1.0000   1.0000   1.0000   1.0000   1.0000   1.0000   1.0000
     1.0000   1.0000   1.0000   1.0000   1.0000   1.0000   1.0000   1.0000
     1.0000   1.0000   1.0000   1.0000   1.0000   1.0000   1.0000   1.0000
     1.0000   1.0000   1.0000   1.0000   1.0000   1.0000   1.0000   1.0000
     1.0000   1.0000   1.0000   1.0000   1.0000   1.0000   1.0000   1.0000
     1.0000   1.0000   1.0000   1.0000   1.0000   1.0000   1.0000   1.0000
     1.0000   1.0000   1.0000   1.0000   1.0000   1.0000   1.0000   1.0000
     1.0000   1.0000   1.0000   1.0000   1.0000   1.0000   1.0000   1.0000
     1.0000   1.0000   1.0000   1.0000   1.0000   1.0000   1.0000   1.0000
     1.0000   1.0000   1.0000   1.0000   1.0000   1.0000   1.0000   1.0000
     1.0000   1.0000   1.0000   1.0000   1.0000   1.0000   1.0000   1.0000
     1.0000   1.0000   1.0000   1.0000   1.0000   1.0000   1.0000   1.0000
     1.0000   1.0000   1.0000   1.0000   1.0000   1.0000   1.0000   1.0000
     1.0000   1.0000   1.0000   1.0000   1.0000   1.0000   1.0000   1.0000
     1.0000   1.0000   1.0000   1.0000   1.0000   1.0000   1.0000   1.0000
     1.0000   1.0000   1.0000   1.0000   1.0000   1.0000   1.0000   1.0000
     1.0000   1.0000   1.0000   1.0000   1.0000   1.0000   1.0000   1.0000
     1.0000   1.0000   1.0000   1.0000   1.0000   1.0000   1.0000   1.0000
     1.0000   1.0000   1.0000   1.0000   1.0000   1.0000   1.0000   1.0000
     1.0000   1.0000   1.0000   1.0000   1.0000   1.0000   1.0000   1.0000
     1.0000   1.0000   1.0000   1.0000   1.0000   1.0000   1.0000   1.0001
     1.0001   1.0001   1.0001   1.0001   1.0001   1.0001   1.0001   1.0001
     1.0001   1.0002   1.0002   1.0002   1.0002   1.0002   1.0002   1.0002
     1.0002   1.0002   1.0002   1.0002   1.0002   1.0002   1.0003   1.0003
     1.0003   1.0003   1.0003   1.0004   1.0004   1.0004   1.0004   1.0004
     1.0004   1.0004   1.0005   1.0005   1.0005   1.0005   1.0005   1.0005
     1.0006   1.0006   1.0006   1.0011   1.0012   1.0013   1.0013   1.0014
     1.0014   1.0014   1.0015   1.0015   1.0016   1.0016   1.0016   1.0017
     1.0017   1.0018   1.0018   1.0021   1.0024   1.0055   1.0059   1.0072
     1.0073   1.0075   1.0079   1.0080   1.0082   1.0083   1.0085   1.0088
     1.0090   1.0094   1.0097   1.0105   1.0108   1.0108   1.0113   1.0119
     1.0121   1.0122   1.0126   1.0127   1.0132   1.0368   1.0498   1.0545
     1.0596   1.0620   1.0642   1.0658   1.0687   1.0697   1.0724   1.0729
     1.0735   1.0758   1.0790   1.0811   1.0827   1.0829   1.0831   1.0832
     1.0832   1.0833   1.0833   1.0833   1.0832   1.0831   1.0830   1.0829
     1.0828   1.0823   1.0729   1.0557   0.9875   0.9724   0.9626   0.9499
     0.9422   0.9380   0.9370   0.9316   0.9254   0.9195   0.9141   0.8487
     0.7493   0.5599   0.4327   0.3654   0.3445   0.3014   0.0787   0.0547
     0.0280   0.0191   0.0168   0.0155   0.0150   0.0111   0.0098   0.0064
     0.0043   0.0024   0.0017   0.0009   0.0002   0.0002   0.0001   0.0001
     0.0001   0.0000   0.0000   0.0000   0.0000   0.0000   0.0000   0.0000
     0.0000   0.0000   0.0000   0.0000   0.0000   0.0000   0.0000   0.0000
     0.0000   0.0000   0.0000   0.0000   0.0000   0.0000   0.0000   0.0000
     0.0000   0.0000   0.0000   0.0000   0.0000   0.0000   0.0000   0.0000
     0.0000   0.0000   0.0000   0.0000   0.0000   0.0000   0.0000   0.0000
     0.0000   0.0000   0.0000   0.0000   0.0000   0.0000   0.0000   0.0000
     0.0000   0.0000   0.0000   0.0000   0.0000   0.0000   0.0000   0.0000
     0.0000   0.0000   0.0000   0.0000   0.0000   0.0000   0.0000   0.0000
     0.0000   0.0000   0.0000   0.0000   0.0000   0.0000

          k = 0.0000 0.0000-0.5000 (136448 PWs)   bands (ev):

    -6.3972  -5.6499  -5.5716  -5.3892  -5.3536  -5.2093  -5.2053  -5.1606
    -5.1427  -5.1304  -4.9725  -4.8718  -4.8420  -4.8014  -4.7713  -4.7210
    -4.7083  -4.6974  -4.6823  -4.6762  -4.4570  -4.4238  -4.3412  -4.3314
    -4.3012  -4.2657  -4.2570  -4.2353  -4.1410  -4.1004  -4.0136  -3.9848
    -3.9527  -3.9192  -3.9162  -3.9129  -3.9025  -3.8768  -3.8510  -3.8248
    -3.7891  -3.7822  -3.7610  -3.7437  -3.6647  -3.5886  -3.5489  -3.5392
    -3.5171  -3.4915  -3.4716  -3.4673  -3.4447  -3.4406  -3.4245  -3.4171
    -3.4117  -3.4076  -3.4055  -3.3931  -3.2794  -3.2694  -3.2476  -3.2458
    -3.2334  -3.2262  -3.2193  -3.2172  -3.1239  -3.1159  -3.0847  -3.0811
    -3.0705  -3.0669  -3.0538  -3.0387  -2.9644  -2.9139  -2.8410  -2.8217
    -2.7974  -2.7832  -2.7649  -2.7526  -2.7490  -2.7406  -2.6309  -2.6147
    -2.6062  -2.5855  -2.5811  -2.5711  -2.5636  -2.5527  -2.1456  -2.0955
    -2.0704  -2.0578  -2.0409  -2.0319  -2.0140  -2.0104  -1.9246  -1.8263
    -1.7400  -1.6838  -1.6573  -1.6243  -1.6110  -1.6032  -1.5538  -1.5392
    -1.5210  -1.5070  -1.5000  -1.2597  -1.2247  -1.2037  -1.1742  -1.1628
    -1.1388  -1.1096  -1.0896  -1.0284  -0.9694  -0.8736  -0.8148  -0.8030
    -0.7615  -0.7095  -0.6958  -0.6757  -0.6637  -0.6550  -0.6511  -0.6423
    -0.6327  -0.6227  -0.6028  -0.5461  -0.5387  -0.5208  -0.5136  -0.4982
    -0.4855  -0.4833  -0.3757  -0.3416  -0.3291  -0.2250  -0.2204  -0.1861
    -0.1709  -0.1602  -0.1075  -0.0862  -0.0741  -0.0600  -0.0449  -0.0156
     0.0067   0.0171   0.0276   0.0587   0.0664   0.0729   0.0758   0.0846
     0.0913   0.0986   0.1019   0.1061   0.1161   0.1244   0.1351   0.1401
     0.1452   0.1568   0.1610   0.1686   0.4564   0.7138   0.8418   0.8696
     0.8775   0.8892   0.9027   0.9369   0.9460   0.9660   1.1531   1.1973
     1.2435   1.3199   1.3713   1.4142   1.4337   1.4390   1.4544   1.5069
     1.5247   1.6149   1.6257   1.6815   1.7083   1.7135   1.7437   1.7690
     1.7853   1.7965   1.8184   1.8666   1.9211   1.9450   1.9643   1.9850
     1.9899   1.9977   2.0079   2.0145   2.0410   2.0837   2.1082   2.1470
     2.1799   2.1990   2.2179   2.2605   2.2662   2.2824   2.2891   2.2970
     2.3117   2.3239   2.3519   2.3591   2.3729   2.3918   2.3957   2.4124
     2.4851   2.5490   2.5715   2.5918   2.6113   2.6304   2.6839   2.7329
     2.7673   2.7800   2.7903   2.8299   2.8819   2.8999   2.9059   2.9138
     2.9195   2.9289   2.9356   2.9374   2.9431   2.9556   2.9572   2.9657
     2.9704   2.9754   2.9847   2.9889   3.0029   3.0062   3.0136   3.0147
     3.0196   3.0280   3.0341   3.0368   3.0446   3.0474   3.0503   3.0608
     3.0674   3.0714   3.1757   3.2081   3.2325   3.2346   3.2483   3.2553
     3.2874   3.3011   3.3021   3.3045   3.3143   3.3294   3.3335   3.3393
     3.3460   3.3480   3.3600   3.3698   3.3751   3.3806   3.3841   3.3896
     3.3988   3.4041   3.4128   3.4190   3.4238   3.4316   3.4672   3.4766
     3.4896   3.5012   3.5179   3.5205   3.5401   3.5450   3.6095   3.6483
     3.6598   3.6930   3.7084   3.7264   3.7398   3.7497   3.8128   3.8324
     3.8854   3.8857   3.9107   3.9235   3.9322   3.9515   3.9742   3.9839
     3.9911   3.9979   4.0051   4.0114   4.0228   4.0245   4.0327   4.0398
     4.0490   4.0530   4.0544   4.0653   4.0790   4.0872   4.0902   4.1034
     4.1159   4.1172   4.1240   4.1310   4.1365   4.1429   4.1829   4.1959
     4.2300   4.2308   4.2602   4.2973   4.3016   4.3378   4.3702   4.3788
     4.3859   4.3992   4.4072   4.4236   4.4329   4.4423   4.4559   4.4639
     4.4688   4.4734   4.4761   4.4824   4.4933   4.4982   4.5019   4.5155
     4.5196   4.5273   4.5327   4.5422   4.5467   4.5565   4.5598   4.5627
     4.5672   4.5879   4.6566   4.6791   4.6946   4.7035   4.7196   4.7226
     4.7348   4.7400   4.7782   4.8076   4.8321   4.8361   4.8421   4.8507
     4.8550   4.8680   4.9874   5.1005   5.2668   5.3084   5.3426   5.3619
     5.3678   5.3860   5.3903   5.3999   5.4047   5.4141   5.4203   5.4252
     5.4385   5.4419   5.4461   5.4535   5.4539   5.4866   5.5598   5.6213
     5.6526   5.6926   5.7053   5.8804   5.9804   6.1614   6.5965   6.8034
     6.8371   7.0381   7.1166   7.1766   7.2960   7.3287   7.3857   7.4277
     7.4352   7.4613   7.4745   7.4825   7.4868   7.4971   7.5082   7.5235
     7.5368   7.5729   7.5834   7.5920   7.6436   7.6723   7.7244   7.7392
     7.7827   7.7964   7.8098   7.8326   7.8376   7.8433   7.8698   7.9089
     7.9261   7.9367   7.9581   7.9739   8.0223   8.0365   8.0556   8.0935
     8.0977   8.1239   8.1604   8.1697   8.1828   8.1926   8.2052   8.2307
     8.2474   8.2650   8.2862   8.2958   8.3220   8.3248   8.3285   8.3388
     8.3488   8.3587   8.3665   8.3735   8.3884   8.3927   8.3990   8.4124
     8.4134   8.4202   8.4222   8.4395   8.4471   8.4509   8.4585   8.4647
     8.4725   8.4813   8.4828   8.4936   8.5185   8.5264   8.5384   8.5424
     8.5505   8.5592   8.5692   8.5917   8.5953   8.6039

     occupation numbers 
     1.0000   1.0000   1.0000   1.0000   1.0000   1.0000   1.0000   1.0000
     1.0000   1.0000   1.0000   1.0000   1.0000   1.0000   1.0000   1.0000
     1.0000   1.0000   1.0000   1.0000   1.0000   1.0000   1.0000   1.0000
     1.0000   1.0000   1.0000   1.0000   1.0000   1.0000   1.0000   1.0000
     1.0000   1.0000   1.0000   1.0000   1.0000   1.0000   1.0000   1.0000
     1.0000   1.0000   1.0000   1.0000   1.0000   1.0000   1.0000   1.0000
     1.0000   1.0000   1.0000   1.0000   1.0000   1.0000   1.0000   1.0000
     1.0000   1.0000   1.0000   1.0000   1.0000   1.0000   1.0000   1.0000
     1.0000   1.0000   1.0000   1.0000   1.0000   1.0000   1.0000   1.0000
     1.0000   1.0000   1.0000   1.0000   1.0000   1.0000   1.0000   1.0000
     1.0000   1.0000   1.0000   1.0000   1.0000   1.0000   1.0000   1.0000
     1.0000   1.0000   1.0000   1.0000   1.0000   1.0000   1.0000   1.0000
     1.0000   1.0000   1.0000   1.0000   1.0000   1.0000   1.0000   1.0000
     1.0000   1.0000   1.0000   1.0000   1.0000   1.0000   1.0000   1.0000
     1.0000   1.0000   1.0000   1.0000   1.0000   1.0000   1.0000   1.0000
     1.0000   1.0000   1.0000   1.0000   1.0000   1.0000   1.0000   1.0000
     1.0000   1.0000   1.0000   1.0000   1.0000   1.0000   1.0000   1.0000
     1.0000   1.0000   1.0000   1.0000   1.0000   1.0000   1.0000   1.0000
     1.0000   1.0000   1.0000   1.0000   1.0000   1.0000   1.0000   1.0000
     1.0000   1.0000   1.0000   1.0000   1.0000   1.0000   1.0000   1.0000
     1.0000   1.0000   1.0000   1.0000   1.0000   1.0000   1.0000   1.0000
     1.0000   1.0000   1.0000   1.0000   1.0000   1.0000   1.0000   1.0000
     1.0000   1.0000   1.0000   1.0000   1.0000   1.0000   1.0000   1.0000
     1.0000   1.0000   1.0000   1.0000   1.0000   1.0000   1.0000   1.0000
     1.0000   1.0000   1.0000   1.0000   1.0000   1.0000   1.0000   1.0000
     1.0000   1.0000   1.0000   1.0000   1.0000   1.0000   1.0000   1.0000
     1.0000   1.0000   1.0000   1.0000   1.0000   1.0000   1.0000   1.0000
     1.0000   1.0000   1.0000   1.0000   1.0000   1.0000   1.0000   1.0000
     1.0000   1.0000   1.0000   1.0000   1.0000   1.0000   1.0000   1.0000
     1.0000   1.0000   1.0000   1.0000   1.0000   1.0000   1.0000   1.0000
     1.0000   1.0000   1.0000   1.0000   1.0000   1.0000   1.0000   1.0000
     1.0000   1.0000   1.0000   1.0000   1.0000   1.0000   1.0000   1.0000
     1.0000   1.0000   1.0000   1.0000   1.0000   1.0000   1.0000   1.0000
     1.0000   1.0000   1.0000   1.0000   1.0000   1.0000   1.0000   1.0000
     1.0000   1.0000   1.0000   1.0000   1.0000   1.0000   1.0000   1.0000
     1.0000   1.0000   1.0000   1.0000   1.0000   1.0000   1.0000   1.0000
     1.0000   1.0000   1.0000   1.0000   1.0000   1.0000   1.0000   1.0000
     1.0000   1.0000   1.0000   1.0000   1.0000   1.0000   1.0000   1.0000
     1.0000   1.0000   1.0000   1.0000   1.0000   1.0000   1.0000   1.0000
     1.0000   1.0000   1.0000   1.0000   1.0000   1.0000   1.0001   1.0001
     1.0001   1.0001   1.0001   1.0002   1.0002   1.0002   1.0003   1.0004
     1.0006   1.0006   1.0007   1.0007   1.0008   1.0009   1.0010   1.0011
     1.0012   1.0012   1.0013   1.0013   1.0014   1.0015   1.0015   1.0016
     1.0017   1.0018   1.0018   1.0019   1.0021   1.0022   1.0022   1.0024
     1.0026   1.0026   1.0027   1.0028   1.0029   1.0031   1.0039   1.0042
     1.0051   1.0051   1.0060   1.0073   1.0074   1.0090   1.0105   1.0110
     1.0114   1.0121   1.0126   1.0136   1.0142   1.0148   1.0158   1.0163
     1.0167   1.0170   1.0172   1.0177   1.0186   1.0190   1.0193   1.0204
     1.0207   1.0214   1.0219   1.0228   1.0232   1.0241   1.0244   1.0247
     1.0251   1.0272   1.0349   1.0376   1.0396   1.0407   1.0428   1.0432
     1.0448   1.0455   1.0507   1.0547   1.0581   1.0587   1.0595   1.0607
     1.0613   1.0630   1.0771   1.0833   1.0669   1.0562   1.0451   1.0378
     1.0354   1.0277   1.0258   1.0214   1.0191   1.0145   1.0114   1.0089
     1.0018   0.9999   0.9976   0.9933   0.9931   0.9732   0.9211   0.8698
     0.8413   0.8029   0.7903   0.6025   0.4926   0.3121   0.0621   0.0221
     0.0183   0.0055   0.0033   0.0022   0.0009   0.0007   0.0005   0.0003
     0.0003   0.0003   0.0002   0.0002   0.0002   0.0002   0.0002   0.0001
     0.0001   0.0001   0.0001   0.0001   0.0001   0.0000   0.0000   0.0000
     0.0000   0.0000   0.0000   0.0000   0.0000   0.0000   0.0000   0.0000
     0.0000   0.0000   0.0000   0.0000   0.0000   0.0000   0.0000   0.0000
     0.0000   0.0000   0.0000   0.0000   0.0000   0.0000   0.0000   0.0000
     0.0000   0.0000   0.0000   0.0000   0.0000   0.0000   0.0000   0.0000
     0.0000   0.0000   0.0000   0.0000   0.0000   0.0000   0.0000   0.0000
     0.0000   0.0000   0.0000   0.0000   0.0000   0.0000   0.0000   0.0000
     0.0000   0.0000   0.0000   0.0000   0.0000   0.0000   0.0000   0.0000
     0.0000   0.0000   0.0000   0.0000   0.0000   0.0000

          k = 0.0000-0.5000-0.5000 (136396 PWs)   bands (ev):

    -6.3949  -5.5969  -5.5618  -5.4892  -5.4518  -5.2543  -5.1739  -5.1192
    -5.0727  -5.0533  -5.0133  -5.0094  -4.9026  -4.7286  -4.6909  -4.6432
    -4.6282  -4.5919  -4.5717  -4.5433  -4.5409  -4.3591  -4.3361  -4.2877
    -4.2490  -4.2128  -4.2018  -4.1802  -4.1686  -4.1638  -4.1483  -4.1453
    -4.1432  -4.1298  -4.1254  -4.1227  -4.0028  -3.8741  -3.8153  -3.8026
    -3.7661  -3.7646  -3.7467  -3.7026  -3.6995  -3.6816  -3.6574  -3.6502
    -3.6170  -3.5890  -3.5796  -3.5699  -3.5440  -3.5344  -3.5277  -3.5062
    -3.2846  -3.2364  -3.2190  -3.1874  -3.1739  -3.1466  -3.1165  -3.1062
    -3.0808  -3.0762  -3.0673  -3.0641  -3.0616  -3.0559  -3.0502  -3.0445
    -3.0104  -2.9359  -2.8535  -2.8378  -2.7920  -2.7794  -2.7678  -2.7619
    -2.7402  -2.7107  -2.6776  -2.6589  -2.6342  -2.6298  -2.6018  -2.5983
    -2.5946  -2.5903  -2.5838  -2.5799  -2.5697  -2.5688  -2.5662  -2.5566
    -2.3808  -2.3466  -2.3152  -2.3089  -2.2987  -2.2913  -2.2786  -2.2656
    -1.9424  -1.8804  -1.8180  -1.7955  -1.7074  -1.4999  -1.4301  -1.4214
    -1.3797  -1.1803  -1.1205  -1.0335  -1.0012  -0.9137  -0.8948  -0.8166
    -0.7996  -0.7842  -0.7593  -0.7531  -0.7328  -0.7155  -0.6878  -0.6757
    -0.6535  -0.6239  -0.6069  -0.5972  -0.5865  -0.5807  -0.5748  -0.5648
    -0.5592  -0.5472  -0.5394  -0.5379  -0.5324  -0.5105  -0.5018  -0.4912
    -0.4734  -0.4577  -0.4526  -0.4471  -0.4320  -0.4238  -0.4190  -0.4044
    -0.3997  -0.3995  -0.3946  -0.3823  -0.3802  -0.3745  -0.3693  -0.3642
    -0.3588  -0.3492  -0.3472  -0.3408  -0.3397  -0.3305  -0.3287  -0.3114
     0.2109   0.3411   0.4185   0.4975   0.5242   0.5485   0.5984   0.6157
     0.6473   0.6639   0.6685   0.6815   0.7053   0.7236   0.7373   0.7560
     0.7855   0.7929   0.8196   0.8286   0.8516   0.8655   0.8708   0.8802
     0.8892   0.8956   0.8997   0.9112   0.9824   1.0956   1.3723   1.4310
     1.5789   1.6947   1.7778   1.8145   1.8795   1.9693   1.9853   2.0212
     2.0287   2.0511   2.0858   2.0950   2.1309   2.1566   2.1684   2.1791
     2.1911   2.2010   2.2026   2.2103   2.2178   2.2190   2.2229   2.2300
     2.2369   2.2429   2.2453   2.2557   2.2611   2.2732   2.2786   2.3008
     2.3447   2.3547   2.3752   2.3799   2.3996   2.4191   2.4371   2.4493
     2.4816   2.5039   2.5212   2.5309   2.5410   2.5504   2.5618   2.5701
     2.5805   2.5825   2.5892   2.5972   2.6176   2.6404   2.6462   2.6682
     2.6731   2.6932   2.7028   2.7150   2.7351   2.8063   2.8583   2.8700
     2.8767   2.8878   2.9446   2.9528   2.9859   3.0127   3.0172   3.0419
     3.0436   3.0664   3.0704   3.0777   3.0985   3.1064   3.1139   3.1161
     3.1275   3.1399   3.1477   3.1624   3.1691   3.1917   3.2002   3.2058
     3.2219   3.2383   3.2511   3.2600   3.2637   3.3452   3.3720   3.4199
     3.4298   3.4468   3.4681   3.4730   3.4839   3.4888   3.4954   3.5149
     3.5190   3.5260   3.5292   3.5320   3.5429   3.5481   3.5525   3.5601
     3.5661   3.5847   3.6053   3.6100   3.6237   3.6408   3.6449   3.6649
     3.6758   3.6893   3.6902   3.6956   3.7065   3.7129   3.7231   3.7310
     3.7337   3.7390   3.7662   3.7793   3.7962   3.8233   3.8276   3.8433
     3.8576   3.8628   3.8730   3.8794   3.8833   3.8892   3.8993   3.9186
     3.9857   3.9959   4.0498   4.0840   4.0976   4.1179   4.1373   4.1439
     4.1586   4.1668   4.1692   4.1726   4.1864   4.1877   4.1969   4.2055
     4.2169   4.2210   4.2283   4.2291   4.2524   4.2595   4.2603   4.2743
     4.3644   4.3982   4.4278   4.4495   4.4545   4.4815   4.4900   4.4949
     4.5072   4.5231   4.5325   4.5374   4.6186   4.6703   4.6754   4.7170
     4.7400   4.7530   4.7685   4.7801   4.7873   4.7878   4.7981   4.8022
     4.8079   4.8149   4.8231   4.8243   4.8343   4.8346   4.8409   4.8433
     4.8538   4.8595   4.8745   4.8825   4.8874   4.8973   4.9045   4.9086
     4.9327   4.9395   4.9670   4.9851   5.0039   5.0101   5.0239   5.0351
     5.0406   5.0659   5.1092   5.1432   5.1540   5.1645   5.1833   5.1885
     5.2233   5.2299   5.2514   5.2657   5.2860   5.3769   5.5245   5.8396
     5.8987   5.9511   5.9940   6.0039   6.0494   6.2148   6.7359   6.8122
     6.9611   7.0952   7.1041   7.2423   7.2887   7.3243   7.3357   7.3648
     7.3784   7.4042   7.4178   7.4640   7.5042   7.5168   7.5308   7.5587
     7.5819   7.6150   7.6298   7.6461   7.7102   7.7438   7.7835   7.8368
     7.8428   7.8546   7.8648   7.8661   7.8847   7.8980   7.9011   7.9123
     7.9256   7.9317   7.9379   7.9406   7.9603   7.9680   7.9737   7.9793
     7.9895   7.9935   7.9982   8.0030   8.0044   8.0167   8.0300   8.0354
     8.0677   8.0877   8.0994   8.1272   8.1710   8.1782   8.2044   8.2515
     8.2581   8.2756   8.2883   8.3481   8.3820   8.4081   8.4447   8.4745
     8.4814   8.4952   8.5055   8.5178   8.5217   8.5386   8.5471   8.5659
     8.5859   8.5901   8.5972   8.6150   8.6309   8.6405   8.6416   8.6566
     8.6716   8.6745   8.6836   8.6926   8.6993   8.7153

     occupation numbers 
     1.0000   1.0000   1.0000   1.0000   1.0000   1.0000   1.0000   1.0000
     1.0000   1.0000   1.0000   1.0000   1.0000   1.0000   1.0000   1.0000
     1.0000   1.0000   1.0000   1.0000   1.0000   1.0000   1.0000   1.0000
     1.0000   1.0000   1.0000   1.0000   1.0000   1.0000   1.0000   1.0000
     1.0000   1.0000   1.0000   1.0000   1.0000   1.0000   1.0000   1.0000
     1.0000   1.0000   1.0000   1.0000   1.0000   1.0000   1.0000   1.0000
     1.0000   1.0000   1.0000   1.0000   1.0000   1.0000   1.0000   1.0000
     1.0000   1.0000   1.0000   1.0000   1.0000   1.0000   1.0000   1.0000
     1.0000   1.0000   1.0000   1.0000   1.0000   1.0000   1.0000   1.0000
     1.0000   1.0000   1.0000   1.0000   1.0000   1.0000   1.0000   1.0000
     1.0000   1.0000   1.0000   1.0000   1.0000   1.0000   1.0000   1.0000
     1.0000   1.0000   1.0000   1.0000   1.0000   1.0000   1.0000   1.0000
     1.0000   1.0000   1.0000   1.0000   1.0000   1.0000   1.0000   1.0000
     1.0000   1.0000   1.0000   1.0000   1.0000   1.0000   1.0000   1.0000
     1.0000   1.0000   1.0000   1.0000   1.0000   1.0000   1.0000   1.0000
     1.0000   1.0000   1.0000   1.0000   1.0000   1.0000   1.0000   1.0000
     1.0000   1.0000   1.0000   1.0000   1.0000   1.0000   1.0000   1.0000
     1.0000   1.0000   1.0000   1.0000   1.0000   1.0000   1.0000   1.0000
     1.0000   1.0000   1.0000   1.0000   1.0000   1.0000   1.0000   1.0000
     1.0000   1.0000   1.0000   1.0000   1.0000   1.0000   1.0000   1.0000
     1.0000   1.0000   1.0000   1.0000   1.0000   1.0000   1.0000   1.0000
     1.0000   1.0000   1.0000   1.0000   1.0000   1.0000   1.0000   1.0000
     1.0000   1.0000   1.0000   1.0000   1.0000   1.0000   1.0000   1.0000
     1.0000   1.0000   1.0000   1.0000   1.0000   1.0000   1.0000   1.0000
     1.0000   1.0000   1.0000   1.0000   1.0000   1.0000   1.0000   1.0000
     1.0000   1.0000   1.0000   1.0000   1.0000   1.0000   1.0000   1.0000
     1.0000   1.0000   1.0000   1.0000   1.0000   1.0000   1.0000   1.0000
     1.0000   1.0000   1.0000   1.0000   1.0000   1.0000   1.0000   1.0000
     1.0000   1.0000   1.0000   1.0000   1.0000   1.0000   1.0000   1.0000
     1.0000   1.0000   1.0000   1.0000   1.0000   1.0000   1.0000   1.0000
     1.0000   1.0000   1.0000   1.0000   1.0000   1.0000   1.0000   1.0000
     1.0000   1.0000   1.0000   1.0000   1.0000   1.0000   1.0000   1.0000
     1.0000   1.0000   1.0000   1.0000   1.0000   1.0000   1.0000   1.0000
     1.0000   1.0000   1.0000   1.0000   1.0000   1.0000   1.0000   1.0000
     1.0000   1.0000   1.0000   1.0000   1.0000   1.0000   1.0000   1.0000
     1.0000   1.0000   1.0000   1.0000   1.0000   1.0000   1.0000   1.0000
     1.0000   1.0000   1.0000   1.0000   1.0000   1.0000   1.0000   1.0000
     1.0000   1.0000   1.0000   1.0000   1.0000   1.0000   1.0000   1.0000
     1.0000   1.0000   1.0000   1.0000   1.0000   1.0000   1.0000   1.0000
     1.0000   1.0001   1.0001   1.0001   1.0001   1.0001   1.0001   1.0001
     1.0001   1.0001   1.0001   1.0001   1.0001   1.0002   1.0002   1.0002
     1.0002   1.0002   1.0002   1.0003   1.0003   1.0004   1.0004   1.0004
     1.0005   1.0005   1.0005   1.0005   1.0006   1.0006   1.0006   1.0007
     1.0011   1.0012   1.0017   1.0021   1.0023   1.0026   1.0030   1.0031
     1.0034   1.0035   1.0036   1.0036   1.0039   1.0040   1.0042   1.0044
     1.0047   1.0048   1.0050   1.0050   1.0057   1.0060   1.0060   1.0064
     1.0103   1.0121   1.0139   1.0153   1.0157   1.0176   1.0183   1.0187
     1.0197   1.0210   1.0219   1.0223   1.0305   1.0365   1.0371   1.0424
     1.0455   1.0472   1.0493   1.0509   1.0519   1.0520   1.0534   1.0540
     1.0548   1.0557   1.0569   1.0570   1.0584   1.0585   1.0593   1.0597
     1.0611   1.0619   1.0639   1.0649   1.0656   1.0669   1.0678   1.0683
     1.0713   1.0721   1.0751   1.0769   1.0786   1.0791   1.0802   1.0809
     1.0813   1.0825   1.0833   1.0826   1.0820   1.0814   1.0799   1.0794
     1.0750   1.0740   1.0701   1.0672   1.0623   1.0316   0.9475   0.6477
     0.5823   0.5245   0.4780   0.4675   0.4199   0.2664   0.0315   0.0210
     0.0089   0.0038   0.0036   0.0014   0.0010   0.0007   0.0007   0.0005
     0.0005   0.0004   0.0004   0.0002   0.0002   0.0002   0.0001   0.0001
     0.0001   0.0001   0.0001   0.0001   0.0000   0.0000   0.0000   0.0000
     0.0000   0.0000   0.0000   0.0000   0.0000   0.0000   0.0000   0.0000
     0.0000   0.0000   0.0000   0.0000   0.0000   0.0000   0.0000   0.0000
     0.0000   0.0000   0.0000   0.0000   0.0000   0.0000   0.0000   0.0000
     0.0000   0.0000   0.0000   0.0000   0.0000   0.0000   0.0000   0.0000
     0.0000   0.0000   0.0000   0.0000   0.0000   0.0000   0.0000   0.0000
     0.0000   0.0000   0.0000   0.0000   0.0000   0.0000   0.0000   0.0000
     0.0000   0.0000   0.0000   0.0000   0.0000   0.0000   0.0000   0.0000
     0.0000   0.0000   0.0000   0.0000   0.0000   0.0000

          k =-0.5000-0.5000-0.5000 (136344 PWs)   bands (ev):

    -6.3930  -5.5598  -5.5158  -5.4578  -5.4369  -5.3794  -5.3689  -5.3518
    -5.1087  -4.9091  -4.8243  -4.6934  -4.6338  -4.5945  -4.5655  -4.5187
    -4.4999  -4.4857  -4.4755  -4.4690  -4.4640  -4.4602  -4.4556  -4.4543
    -4.4496  -4.4479  -4.4435  -4.4371  -4.4336  -4.4299  -4.4261  -4.4143
    -4.0432  -3.9368  -3.8742  -3.8386  -3.8007  -3.7829  -3.7819  -3.7494
    -3.7186  -3.7075  -3.6890  -3.6833  -3.6780  -3.6752  -3.6649  -3.6608
    -3.6536  -3.6523  -3.6476  -3.6455  -3.6404  -3.6384  -3.6336  -3.6230
    -3.4716  -3.4645  -3.4588  -3.4459  -3.1897  -3.0460  -3.0344  -2.9112
    -2.8900  -2.8569  -2.8344  -2.7891  -2.7815  -2.7593  -2.7497  -2.7357
    -2.7308  -2.7231  -2.7166  -2.7142  -2.7099  -2.7054  -2.7021  -2.6988
    -2.6960  -2.6895  -2.6864  -2.6783  -2.6036  -2.5901  -2.5867  -2.5704
    -2.5681  -2.5604  -2.5541  -2.5495  -2.5437  -2.5371  -2.5279  -2.5246
[...]
     atom   32 type  1   force =    -0.00000059    0.00000447    0.00000155
     atom   33 type  1   force =     0.00000226   -0.00000354    0.00000235
     atom   34 type  1   force =     0.00000591    0.00001090    0.00000618
     atom   35 type  1   force =     0.00000790    0.00000249    0.00000364
     atom   36 type  1   force =     0.00000657   -0.00000173    0.00000425
     atom   37 type  1   force =     0.00000441   -0.00000995    0.00000005
     atom   38 type  1   force =     0.00001128    0.00000346    0.00000138
     atom   39 type  1   force =     0.00000850   -0.00000339   -0.00000427
     atom   40 type  1   force =     0.00000155   -0.00000200    0.00000170
     atom   41 type  1   force =     0.00000148   -0.00000639   -0.00000028
     atom   42 type  1   force =    -0.00000086    0.00000490   -0.00000217
     atom   43 type  1   force =     0.00000071    0.00000201   -0.00000531
     atom   44 type  1   force =     0.00000485   -0.00000449   -0.00000406
     atom   45 type  1   force =     0.00000492   -0.00000685   -0.00000403
     atom   46 type  1   force =     0.00000398    0.00000663   -0.00000813
     atom   47 type  1   force =     0.00000546    0.00000374   -0.00000508
     atom   48 type  1   force =    -0.00000462    0.00000093   -0.00000351
     atom   49 type  1   force =    -0.00000297   -0.00000325   -0.00000166
     atom   50 type  1   force =    -0.00000784   -0.00000561   -0.00000080
     atom   51 type  1   force =    -0.00000409   -0.00001268    0.00000227
     atom   52 type  1   force =     0.00000198   -0.00001276    0.00000142
     atom   53 type  1   force =     0.00000438   -0.00000568    0.00000275
     atom   54 type  1   force =     0.00000101   -0.00000955    0.00000427
     atom   55 type  1   force =     0.00000217   -0.00001383    0.00000383
     atom   56 type  1   force =    -0.00000432   -0.00001418   -0.00000058
     atom   57 type  1   force =     0.00000249   -0.00000823    0.00000284
     atom   58 type  1   force =     0.00000029   -0.00000912   -0.00000131
     atom   59 type  1   force =     0.00000235   -0.00001150    0.00000078
     atom   60 type  1   force =     0.00000342   -0.00001017    0.00000221
     atom   61 type  1   force =     0.00000502   -0.00000044    0.00000508
     atom   62 type  1   force =     0.00000360   -0.00001057   -0.00000080
     atom   63 type  1   force =     0.00000377   -0.00000849   -0.00000018
     atom   64 type  1   force =    -0.00000133   -0.00000801    0.00000511
     atom   65 type  1   force =     0.00000103   -0.00000178    0.00000210
     atom   66 type  1   force =    -0.00000482   -0.00000693    0.00000092
     atom   67 type  1   force =    -0.00000367   -0.00000901   -0.00000268
     atom   68 type  1   force =     0.00000203   -0.00000611   -0.00000256
     atom   69 type  1   force =     0.00000681   -0.00000145   -0.00000751
     atom   70 type  1   force =     0.00000089   -0.00000880   -0.00000363
     atom   71 type  1   force =     0.00000447   -0.00001146   -0.00000308
     atom   72 type  1   force =    -0.00001343   -0.00001233   -0.00000557
     atom   73 type  1   force =    -0.00000380   -0.00000798   -0.00000605
     atom   74 type  1   force =     0.00000792    0.00000195   -0.00000339
     atom   75 type  1   force =     0.00000303    0.00000598   -0.00000253
     atom   76 type  1   force =     0.00000473    0.00000765   -0.00000976
     atom   77 type  1   force =    -0.00000178    0.00000999   -0.00000717
     atom   78 type  1   force =    -0.00000057   -0.00000017   -0.00000262
     atom   79 type  1   force =    -0.00001037    0.00000785    0.00000088
     atom   80 type  1   force =     0.00000205    0.00001037    0.00000642
     atom   81 type  1   force =    -0.00000340    0.00001151    0.00001101
     atom   82 type  1   force =     0.00000178    0.00000604    0.00000871
     atom   83 type  1   force =    -0.00000323    0.00001350    0.00001314
     atom   84 type  1   force =    -0.00000953    0.00001302    0.00001358
     atom   85 type  1   force =    -0.00001147    0.00001189    0.00001461
     atom   86 type  1   force =    -0.00000450    0.00000926    0.00001228
     atom   87 type  1   force =    -0.00000520    0.00000951    0.00000989
     atom   88 type  1   force =     0.00000656    0.00001281    0.00000587
     atom   89 type  1   force =     0.00000201    0.00000640   -0.00000198
     atom   90 type  1   force =     0.00000933    0.00000847   -0.00000585
     atom   91 type  1   force =     0.00000928    0.00000852   -0.00000970
     atom   92 type  1   force =     0.00000069    0.00000922   -0.00000440
     atom   93 type  1   force =    -0.00000043    0.00000587   -0.00000663
     atom   94 type  1   force =     0.00000951    0.00000230   -0.00000891
     atom   95 type  1   force =     0.00000363    0.00000328   -0.00001157
     atom   96 type  1   force =     0.00000962    0.00000957   -0.00001093
     atom   97 type  1   force =     0.00000731    0.00000825   -0.00000987
     atom   98 type  1   force =     0.00000522    0.00000771   -0.00000336
     atom   99 type  1   force =     0.00000315    0.00000638    0.00000097
     atom  100 type  1   force =     0.00000369    0.00000091   -0.00000376
     atom  101 type  1   force =     0.00000228   -0.00000179   -0.00000274
     atom  102 type  1   force =    -0.00000206    0.00001019    0.00000255
     atom  103 type  1   force =    -0.00000495    0.00000728    0.00000396
     atom  104 type  1   force =     0.00000328    0.00000132    0.00000608
     atom  105 type  1   force =    -0.00000019   -0.00000689    0.00000355
     atom  106 type  1   force =     0.00000187    0.00000565    0.00001204
     atom  107 type  1   force =    -0.00000190   -0.00000182    0.00000693
     atom  108 type  1   force =    -0.00000437   -0.00000265    0.00000481
     atom  109 type  1   force =    -0.00000407   -0.00000791    0.00000264
     atom  110 type  1   force =    -0.00000594    0.00000177    0.00000805
     atom  111 type  1   force =    -0.00000526   -0.00000383    0.00000361
     atom  112 type  1   force =     0.00000370   -0.00000871   -0.00000012
     atom  113 type  1   force =     0.00000240   -0.00001061    0.00000016
     atom  114 type  1   force =     0.00000873    0.00000155   -0.00000920
     atom  115 type  1   force =     0.00000626   -0.00000135   -0.00000772
     atom  116 type  1   force =     0.00000138   -0.00000730   -0.00000076
     atom  117 type  1   force =     0.00000177   -0.00000506    0.00000018
     atom  118 type  1   force =     0.00000452    0.00000440   -0.00001014
     atom  119 type  1   force =     0.00000165    0.00000266   -0.00000766
     atom  120 type  1   force =     0.00000732   -0.00000284   -0.00000631
     atom  121 type  1   force =     0.00000661   -0.00000531   -0.00000374
     atom  122 type  1   force =     0.00000599   -0.00000960   -0.00000026
     atom  123 type  1   force =     0.00000498   -0.00001250   -0.00000036
     atom  124 type  1   force =     0.00000867   -0.00000864   -0.00000712
     atom  125 type  1   force =     0.00000360   -0.00000743   -0.00000974
     atom  126 type  1   force =     0.00000169   -0.00001035    0.00000037
     atom  127 type  1   force =     0.00000065   -0.00001320   -0.00000172
     atom  128 type  1   force =     0.00000265   -0.00001045    0.00000321
     atom  129 type  1   force =    -0.00000090   -0.00000478    0.00000408
     atom  130 type  1   force =     0.00000115   -0.00001270    0.00000110
     atom  131 type  1   force =     0.00000042   -0.00001100    0.00000261
     atom  132 type  1   force =    -0.00000252   -0.00001079    0.00000280
     atom  133 type  1   force =    -0.00000576   -0.00000479    0.00001126
     atom  134 type  1   force =    -0.00000050   -0.00001037    0.00000312
     atom  135 type  1   force =     0.00000095   -0.00000577    0.00000760
     atom  136 type  1   force =     0.00000357   -0.00000442    0.00000287
     atom  137 type  1   force =     0.00000484    0.00000362    0.00000385
     atom  138 type  1   force =     0.00000565   -0.00000958   -0.00000153
     atom  139 type  1   force =     0.00000824   -0.00000708   -0.00000194
     atom  140 type  1   force =     0.00000628   -0.00000247    0.00000330
     atom  141 type  1   force =     0.00000550   -0.00000097   -0.00000033
     atom  142 type  1   force =     0.00000757   -0.00000659   -0.00000351
     atom  143 type  1   force =     0.00000690   -0.00000662   -0.00000644
     atom  144 type  1   force =     0.00000959   -0.00000713   -0.00000631
     atom  145 type  1   force =     0.00001014   -0.00000336   -0.00000799
     atom  146 type  1   force =    -0.00000008   -0.00000423   -0.00001452
     atom  147 type  1   force =    -0.00000633    0.00000226   -0.00001495
     atom  148 type  1   force =    -0.00000901    0.00000871   -0.00001160
     atom  149 type  1   force =    -0.00000348    0.00001326   -0.00000469
     atom  150 type  1   force =    -0.00000192   -0.00000988   -0.00000858
     atom  151 type  1   force =     0.00000349    0.00000299    0.00000139
     atom  152 type  1   force =    -0.00000668    0.00001165   -0.00000810
     atom  153 type  1   force =    -0.00000515    0.00001653    0.00000148
     atom  154 type  1   force =    -0.00000744   -0.00000283    0.00000760
     atom  155 type  1   force =    -0.00000575    0.00000735    0.00001761
     atom  156 type  1   force =    -0.00000047    0.00001362    0.00000791
     atom  157 type  1   force =     0.00000187    0.00001310    0.00000959
     atom  158 type  1   force =    -0.00000460   -0.00000140    0.00001429
     atom  159 type  1   force =    -0.00000363    0.00000505    0.00000936
     atom  160 type  1   force =    -0.00001108    0.00001134    0.00001581
     atom  161 type  1   force =    -0.00000981    0.00000796    0.00001005
     atom  162 type  1   force =    -0.00000302    0.00000235    0.00000716
     atom  163 type  1   force =    -0.00000796    0.00000244   -0.00000110
     atom  164 type  1   force =    -0.00000976    0.00000668    0.00000495
     atom  165 type  1   force =    -0.00000726    0.00000714   -0.00000427
     atom  166 type  1   force =    -0.00001356   -0.00000412   -0.00000637
     atom  167 type  1   force =    -0.00001334    0.00000384   -0.00001146
     atom  168 type  1   force =    -0.00000318    0.00000551   -0.00000955
     atom  169 type  1   force =    -0.00000696    0.00000691   -0.00001055
     atom  170 type  1   force =    -0.00000266    0.00000818   -0.00000964
     atom  171 type  1   force =    -0.00000381    0.00000875   -0.00000474
     atom  172 type  1   force =    -0.00000576    0.00000418   -0.00000417
     atom  173 type  1   force =    -0.00000459    0.00000088   -0.00000138
     atom  174 type  1   force =    -0.00000320    0.00001367   -0.00000272
     atom  175 type  1   force =    -0.00000069    0.00000957    0.00000138
     atom  176 type  1   force =    -0.00000231    0.00000379   -0.00000188
     atom  177 type  1   force =    -0.00000209   -0.00000112   -0.00000240
     atom  178 type  1   force =    -0.00000797    0.00001136    0.00000784
     atom  179 type  1   force =    -0.00000581    0.00000481    0.00000706
     atom  180 type  1   force =    -0.00000196    0.00000252    0.00000105
     atom  181 type  1   force =    -0.00000041   -0.00000465    0.00000070
     atom  182 type  1   force =    -0.00000486    0.00000828    0.00000895
     atom  183 type  1   force =    -0.00000279    0.00000175    0.00000343
     atom  184 type  1   force =    -0.00000578   -0.00000473    0.00000574
     atom  185 type  1   force =    -0.00000441   -0.00000506    0.00000620
     atom  186 type  1   force =    -0.00000710    0.00000204    0.00000098
     atom  187 type  1   force =    -0.00000705    0.00000040   -0.00000129
     atom  188 type  1   force =    -0.00000568   -0.00000125    0.00000255
     atom  189 type  1   force =    -0.00000689   -0.00000187    0.00000028
     atom  190 type  1   force =    -0.00000914    0.00000593   -0.00000633
     atom  191 type  1   force =    -0.00000691    0.00000579   -0.00000495
     atom  192 type  1   force =    -0.00000212   -0.00000003   -0.00000376
     atom  193 type  1   force =    -0.00000406    0.00000039   -0.00000404
     atom  194 type  1   force =     0.00000242   -0.00000415   -0.00000553
     atom  195 type  1   force =     0.00000022   -0.00000915   -0.00000788
     atom  196 type  1   force =    -0.00000659   -0.00001035   -0.00000978
     atom  197 type  1   force =    -0.00000936   -0.00001626   -0.00000460
     atom  198 type  1   force =    -0.00000342   -0.00000527   -0.00000402
     atom  199 type  1   force =    -0.00000215   -0.00001251   -0.00000358
     atom  200 type  1   force =     0.00000150   -0.00001451   -0.00000731
     atom  201 type  1   force =    -0.00000008   -0.00001682   -0.00000555
     atom  202 type  1   force =    -0.00000215   -0.00000946   -0.00000102
     atom  203 type  1   force =    -0.00000205   -0.00001031    0.00000328
     atom  204 type  1   force =    -0.00000148   -0.00001425    0.00000022
     atom  205 type  1   force =    -0.00000033   -0.00000858    0.00000722
     atom  206 type  1   force =    -0.00000284   -0.00000668    0.00000500
     atom  207 type  1   force =    -0.00000500   -0.00000725    0.00000586
     atom  208 type  1   force =    -0.00000159   -0.00000718    0.00001204
     atom  209 type  1   force =    -0.00000543   -0.00000325    0.00001342
     atom  210 type  1   force =    -0.00000048   -0.00000464    0.00000636
     atom  211 type  1   force =    -0.00000422   -0.00000351    0.00000390
     atom  212 type  1   force =    -0.00000791   -0.00000433    0.00000823
     atom  213 type  1   force =    -0.00001354   -0.00000607   -0.00000225
     atom  214 type  1   force =    -0.00000760   -0.00000120    0.00000012
     atom  215 type  1   force =    -0.00001313   -0.00000859   -0.00000249
     atom  216 type  1   force =     0.00000304   -0.00000436   -0.00000286
     atom  217 type  1   force =    -0.00000495   -0.00000837   -0.00000989
     atom  218 type  2   force =     0.00000159   -0.00000213   -0.00000095
     atom  219 type  2   force =    -0.00000292    0.00000312   -0.00000265
     atom  220 type  2   force =    -0.00000417   -0.00000261   -0.00000098
     atom  221 type  2   force =    -0.00000212    0.00000083   -0.00000112
     atom  222 type  2   force =    -0.00000129    0.00000045   -0.00000009
     atom  223 type  2   force =    -0.00000030   -0.00000112   -0.00000120
     atom  224 type  2   force =     0.00000014    0.00000426   -0.00000021

     Total force =     0.075461     Total SCF correction =     0.000174


     Computing stress (Cartesian axis) and pressure

          total   stress  (Ry/bohr**3)                   (kbar)     P=    3.96
   0.00002610  -0.00000695  -0.00000517          3.84     -1.02     -0.76
  -0.00000695   0.00002985   0.00000552         -1.02      4.39      0.81
  -0.00000517   0.00000552   0.00002483         -0.76      0.81      3.65

     kinetic stress (kbar)   2262.82      0.27     -0.11
                                0.27   2263.64      2.14
                               -0.11      2.14   2263.35

     local   stress (kbar)  -1211.87    -10.43      9.84
                              -10.43  -1216.40     10.37
                                9.84     10.37  -1211.51

     nonloc. stress (kbar)   2558.07      1.37      0.56
                                1.37   2557.53     -0.67
                                0.56     -0.67   2558.80

     hartree stress (kbar)    204.24      3.36     -3.77
                                3.36    206.87     -1.11
                               -3.77     -1.11    203.72

     exc-cor stress (kbar)   -801.60     -0.04     -0.04
                               -0.04   -801.60     -0.04
                               -0.04     -0.04   -801.61

     corecor stress (kbar)      0.00      0.00      0.00
                                0.00      0.00      0.00
                                0.00      0.00      0.00

     ewald   stress (kbar)  -3007.83      4.44     -7.23
                                4.44  -3005.66     -9.88
                               -7.23     -9.88  -3009.10

     hubbard stress (kbar)      0.00      0.00      0.00
                                0.00      0.00      0.00
                                0.00      0.00      0.00

     london  stress (kbar)      0.00      0.00      0.00
                                0.00      0.00      0.00
                                0.00      0.00      0.00

     DFT-D3  stress (kbar)      0.00      0.00      0.00
                                0.00      0.00      0.00
                                0.00      0.00      0.00

     XDM     stress (kbar)      0.00      0.00      0.00
                                0.00      0.00      0.00
                                0.00      0.00      0.00

     dft-nl  stress (kbar)      0.00      0.00      0.00
                                0.00      0.00      0.00
                                0.00      0.00      0.00

     TS-vdW  stress (kbar)      0.00      0.00      0.00
                                0.00      0.00      0.00
                                0.00      0.00      0.00



     Writing output data file interstitial_optimize5.save

     init_run     :    291.28s CPU    300.99s WALL (       1 calls)
     electrons    :  10875.16s CPU  11275.93s WALL (       1 calls)
     forces       :     86.62s CPU     87.39s WALL (       1 calls)
     stress       :    806.35s CPU    809.85s WALL (       1 calls)

     Called by init_run:
     wfcinit      :    287.64s CPU    297.20s WALL (       1 calls)
     wfcinit:atom :      0.86s CPU      1.72s WALL (       8 calls)
     wfcinit:wfcr :    275.00s CPU    282.77s WALL (       8 calls)
     potinit      :      0.49s CPU      0.52s WALL (       1 calls)

     Called by electrons:
     c_bands      :  10087.12s CPU  10443.03s WALL (      22 calls)
     sum_band     :    781.06s CPU    809.48s WALL (      22 calls)
     v_of_rho     :      5.87s CPU      6.05s WALL (      22 calls)
     v_h          :      0.37s CPU      0.40s WALL (      22 calls)
     v_xc         :      5.49s CPU      5.65s WALL (      22 calls)
     mix_rho      :      1.20s CPU      1.44s WALL (      22 calls)

     Called by c_bands:
     init_us_2    :     34.75s CPU     37.09s WALL (     376 calls)
     cegterg      :  10012.95s CPU  10318.12s WALL (     176 calls)

     Called by sum_band:

     Called by *egterg:
     h_psi        :   5548.14s CPU   5695.62s WALL (    1003 calls)
     g_psi        :     14.29s CPU     14.34s WALL (     819 calls)
     cdiaghg      :   1669.17s CPU   1676.64s WALL (     987 calls)
     cegterg:over :   1241.27s CPU   1254.10s WALL (     819 calls)
     cegterg:upda :    786.18s CPU    796.25s WALL (     819 calls)
     cegterg:last :    461.65s CPU    466.38s WALL (     176 calls)

     Called by h_psi:
     h_psi:pot    :   5521.28s CPU   5665.87s WALL (    1003 calls)
     h_psi:calbec :   1045.29s CPU   1058.62s WALL (    1003 calls)
     vloc_psi     :   3453.08s CPU   3579.19s WALL (    1003 calls)
     add_vuspsi   :   1022.90s CPU   1028.06s WALL (    1003 calls)

     General routines
     calbec       :   1148.28s CPU   1162.01s WALL (    1043 calls)
     fft          :      3.40s CPU      3.65s WALL (     251 calls)
     fftw         :   3730.19s CPU   3876.47s WALL (  535588 calls)

     Parallel routines
     fft_scatt_xy :    578.80s CPU    582.53s WALL (  535839 calls)
     fft_scatt_yz :    713.05s CPU    840.59s WALL (  535839 calls)

     PWSCF        :     3h21m CPU        3h28m WALL


   This run was terminated on:  12:15:28   7Nov2020            

=------------------------------------------------------------------------------=
   JOB DONE.
=------------------------------------------------------------------------------=
