
     Program PWSCF v.6.2 (svn rev. 14038) starts on  7Nov2020 at 21:19:30 

     This program is part of the open-source Quantum ESPRESSO suite
     for quantum simulation of materials; please cite
         "P. Giannozzi et al., J. Phys.:Condens. Matter 21 395502 (2009);
         "P. Giannozzi et al., J. Phys.:Condens. Matter 29 465901 (2017);
          URL http://www.quantum-espresso.org", 
     in publications or presentations arising from this work. More details at
     http://www.quantum-espresso.org/quote

     Parallel version (MPI), running on     8 processors

     MPI processes distributed on     1 nodes
     R & G space division:  proc/nbgrp/npool/nimage =       8
     Waiting for input...
     Reading input from standard input
Warning: card &IONS ignored
Warning: card / ignored

     Current dimensions of program PWSCF are:
     Max number of different atomic species (ntypx) = 10
     Max number of k-points (npk) =  40000
     Max angular momentum in pseudopotentials (lmaxx) =  3

     Subspace diagonalization in iterative solution of the eigenvalue problem:
     a serial algorithm will be used


     Parallelization info
     --------------------
     sticks:   dense  smooth     PW     G-vecs:    dense   smooth      PW
     Min        1589    1589    419               134811   134811   18265
     Max        1590    1590    420               134814   134814   18266
     Sum       12717   12717   3357              1078507  1078507  146125



     bravais-lattice index     =            0
     lattice parameter (alat)  =      30.8403  a.u.
     unit-cell volume          =   29332.9180 (a.u.)^3
     number of atoms/cell      =          223
     number of atomic types    =            2
     number of electrons       =       874.00
     number of Kohn-Sham states=          524
     kinetic-energy cutoff     =      42.0000  Ry
     charge density cutoff     =     168.0000  Ry
     convergence threshold     =      1.0E-08
     mixing beta               =       0.3000
     number of iterations used =            8  plain     mixing
     Exchange-correlation      = SLA-PW-PBX-PBC ( 1  4  3  4 0 0)

     celldm(1)=  30.840288  celldm(2)=   0.000000  celldm(3)=   0.000000
     celldm(4)=   0.000000  celldm(5)=   0.000000  celldm(6)=   0.000000

     crystal axes: (cart. coord. in units of alat)
               a(1) = (   1.000000   0.000000   0.000000 )  
               a(2) = (   0.000000   1.000000   0.000000 )  
               a(3) = (   0.000000   0.000000   1.000000 )  

     reciprocal axes: (cart. coord. in units 2 pi/alat)
               b(1) = (  1.000000  0.000000  0.000000 )  
               b(2) = (  0.000000  1.000000  0.000000 )  
               b(3) = (  0.000000  0.000000  1.000000 )  


     PseudoPot. # 1 for Si read from file:
     ./Si.pbe-hgh.UPF
     MD5 check sum: 9a9f0f6e09139bfdb36b03ff6bc35900
     Pseudo is Norm-conserving, Zval =  4.0
     Generated in analytical, separable form
     Using radial grid of 1141 points,  3 beta functions with: 
                l(1) =   0
                l(2) =   0
                l(3) =   1

     PseudoPot. # 2 for H  read from file:
     ./H.pbe-hgh.UPF
     MD5 check sum: 5f350582108a937bec95f27f5610ab08
     Pseudo is Norm-conserving, Zval =  1.0
     Generated in analytical, separable form
     Using radial grid of  929 points,  0 beta functions with: 

     atomic species   valence    mass     pseudopotential
        Si             4.00    28.08000     Si( 1.00)
        H              1.00     1.00784     H ( 1.00)

     No symmetry found


                                    s                        frac. trans.

      isym =  1     identity                                     

 cryst.   s( 1) = (     1          0          0      )
                  (     0          1          0      )
                  (     0          0          1      )

 cart.    s( 1) = (  1.0000000  0.0000000  0.0000000 )
                  (  0.0000000  1.0000000  0.0000000 )
                  (  0.0000000  0.0000000  1.0000000 )


   Cartesian axes

     site n.     atom                  positions (alat units)
         1           Si  tau(   1) = (   0.7093500   0.9618750   0.1374340  )
         2           Si  tau(   2) = (   0.0061926   0.9997230   0.9951010  )
         3           Si  tau(   3) = (   0.0855055   0.0841211   0.0814139  )
         4           Si  tau(   4) = (   0.1682620   0.1671220   0.9978820  )
         5           Si  tau(   5) = (   0.2510280   0.2500010   0.0820547  )
         6           Si  tau(   6) = (   0.1669780   0.0012405   0.1663520  )
         7           Si  tau(   7) = (   0.2506380   0.0835171   0.2498480  )
         8           Si  tau(   8) = (   0.0059202   0.1721480   0.1632410  )
         9           Si  tau(   9) = (   0.0870751   0.2522620   0.2495960  )
        10           Si  tau(  10) = (   0.0033546   0.0025334   0.3346230  )
        11           Si  tau(  11) = (   0.0858466   0.0845272   0.4186560  )
        12           Si  tau(  12) = (   0.1680180   0.1670550   0.3333790  )
        13           Si  tau(  13) = (   0.2503610   0.2505330   0.4168210  )
        14           Si  tau(  14) = (   0.1682540   0.9997370   0.5001890  )
        15           Si  tau(  15) = (   0.2508300   0.0839757   0.5826870  )
        16           Si  tau(  16) = (   0.0006769   0.1673410   0.5007180  )
        17           Si  tau(  17) = (   0.0823898   0.2514500   0.5848170  )
        18           Si  tau(  18) = (   0.0010789   0.9989940   0.6651170  )
        19           Si  tau(  19) = (   0.0848965   0.0817349   0.7484870  )
        20           Si  tau(  20) = (   0.1669440   0.1669540   0.6659090  )
        21           Si  tau(  21) = (   0.2515920   0.2493580   0.7487780  )
        22           Si  tau(  22) = (   0.1686960   0.9988990   0.8319020  )
        23           Si  tau(  23) = (   0.2512280   0.0837872   0.9145150  )
        24           Si  tau(  24) = (   0.0021265   0.1649830   0.8317830  )
        25           Si  tau(  25) = (   0.0841267   0.2499560   0.9149820  )
        26           Si  tau(  26) = (   0.0016711   0.3342100   0.9981410  )
        27           Si  tau(  27) = (   0.0846547   0.4166320   0.0822265  )
        28           Si  tau(  28) = (   0.1672180   0.4999870   0.9987410  )
        29           Si  tau(  29) = (   0.2500350   0.5837280   0.0813990  )
        30           Si  tau(  30) = (   0.1691270   0.3344820   0.1653250  )
        31           Si  tau(  31) = (   0.2514900   0.4170930   0.2489400  )
        32           Si  tau(  32) = (   0.0005611   0.4989700   0.1655210  )
        33           Si  tau(  33) = (   0.0836635   0.5816170   0.2495450  )
        34           Si  tau(  34) = (   0.0001442   0.3328600   0.3318410  )
        35           Si  tau(  35) = (   0.0835903   0.4158350   0.4151430  )
        36           Si  tau(  36) = (   0.1672480   0.4988500   0.3324390  )
        37           Si  tau(  37) = (   0.2498290   0.5829020   0.4153600  )
        38           Si  tau(  38) = (   0.1658690   0.3330140   0.4998840  )
        39           Si  tau(  39) = (   0.2508870   0.4162730   0.5812920  )
        40           Si  tau(  40) = (   0.0008945   0.5003740   0.4972140  )
        41           Si  tau(  41) = (   0.0836869   0.5828190   0.5817450  )
        42           Si  tau(  42) = (   0.9941000   0.3397730   0.6722970  )
        43           Si  tau(  43) = (   0.0879825   0.4178700   0.7499470  )
        44           Si  tau(  44) = (   0.1686560   0.5002800   0.6642980  )
        45           Si  tau(  45) = (   0.2509540   0.5829610   0.7486310  )
        46           Si  tau(  46) = (   0.1688970   0.3324940   0.8324880  )
        47           Si  tau(  47) = (   0.2507930   0.4167000   0.9157960  )
        48           Si  tau(  48) = (   0.0025976   0.5003570   0.8315440  )
        49           Si  tau(  49) = (   0.0842041   0.5839550   0.9160530  )
        50           Si  tau(  50) = (   0.9986890   0.6654070   0.9985520  )
        51           Si  tau(  51) = (   0.0808259   0.7469010   0.0838217  )
        52           Si  tau(  52) = (   0.1740420   0.8254140   0.0057810  )
        53           Si  tau(  53) = (   0.2515360   0.9197070   0.0835371  )
        54           Si  tau(  54) = (   0.1660590   0.6652950   0.1657890  )
        55           Si  tau(  55) = (   0.2489960   0.7503460   0.2479300  )
        56           Si  tau(  56) = (   0.9999660   0.8336350   0.1654300  )
        57           Si  tau(  57) = (   0.0828946   0.9178550   0.2485730  )
        58           Si  tau(  58) = (   0.0003640   0.6660680   0.3316630  )
        59           Si  tau(  59) = (   0.0833842   0.7498280   0.4147230  )
        60           Si  tau(  60) = (   0.1661400   0.8337850   0.3316820  )
        61           Si  tau(  61) = (   0.2498940   0.9163650   0.4155470  )
        62           Si  tau(  62) = (   0.1665250   0.6663440   0.4984010  )
        63           Si  tau(  63) = (   0.2497460   0.7491530   0.5821780  )
        64           Si  tau(  64) = (   0.9999820   0.8335670   0.4972930  )
        65           Si  tau(  65) = (   0.0836942   0.9158650   0.5813550  )
        66           Si  tau(  66) = (   0.0003540   0.6665180   0.6643080  )
        67           Si  tau(  67) = (   0.0835792   0.7493130   0.7478210  )
        68           Si  tau(  68) = (   0.1666960   0.8328360   0.6649090  )
        69           Si  tau(  69) = (   0.2503560   0.9162600   0.7475860  )
        70           Si  tau(  70) = (   0.1666570   0.6660000   0.8308050  )
        71           Si  tau(  71) = (   0.2522050   0.7484620   0.9114230  )
        72           Si  tau(  72) = (   0.0017171   0.8324240   0.8324280  )
        73           Si  tau(  73) = (   0.0883078   0.9134530   0.9151080  )
        74           Si  tau(  74) = (   0.3338870   0.0004707   0.9979560  )
        75           Si  tau(  75) = (   0.4161190   0.0826662   0.0826890  )
        76           Si  tau(  76) = (   0.4997310   0.1670470   0.0013103  )
        77           Si  tau(  77) = (   0.5819050   0.2490530   0.0861502  )
        78           Si  tau(  78) = (   0.4987170   0.9988270   0.1660540  )
        79           Si  tau(  79) = (   0.5840190   0.0814346   0.2481310  )
        80           Si  tau(  80) = (   0.3333850   0.1664060   0.1658480  )
        81           Si  tau(  81) = (   0.4163020   0.2494120   0.2498340  )
        82           Si  tau(  82) = (   0.3336160   0.9996490   0.3328470  )
        83           Si  tau(  83) = (   0.4169310   0.0831649   0.4158010  )
        84           Si  tau(  84) = (   0.5004030   0.1655200   0.3314820  )
        85           Si  tau(  85) = (   0.5836020   0.2490420   0.4147860  )
        86           Si  tau(  86) = (   0.4968220   0.0004378   0.5028460  )
        87           Si  tau(  87) = (   0.5838790   0.0832527   0.5826060  )
        88           Si  tau(  88) = (   0.3341000   0.1668700   0.4991240  )
        89           Si  tau(  89) = (   0.4179740   0.2493150   0.5825910  )
        90           Si  tau(  90) = (   0.3332310   0.0008264   0.6664880  )
        91           Si  tau(  91) = (   0.4179880   0.0830178   0.7492750  )
        92           Si  tau(  92) = (   0.5015560   0.1667610   0.6666980  )
        93           Si  tau(  93) = (   0.5849870   0.2503190   0.7502090  )
        94           Si  tau(  94) = (   0.5009410   0.9996740   0.8325120  )
        95           Si  tau(  95) = (   0.5818200   0.0866036   0.9147230  )
        96           Si  tau(  96) = (   0.3355080   0.1670220   0.8323600  )
        97           Si  tau(  97) = (   0.4182030   0.2507910   0.9164100  )
        98           Si  tau(  98) = (   0.3340250   0.3335240   0.9990180  )
        99           Si  tau(  99) = (   0.4172230   0.4163160   0.0824152  )
       100           Si  tau( 100) = (   0.5002650   0.5002010   0.9996630  )
       101           Si  tau( 101) = (   0.5832790   0.5831780   0.0828397  )
       102           Si  tau( 102) = (   0.4992450   0.3336420   0.1674240  )
       103           Si  tau( 103) = (   0.5834630   0.4168020   0.2492470  )
       104           Si  tau( 104) = (   0.3333430   0.5000460   0.1646770  )
       105           Si  tau( 105) = (   0.4153590   0.5823220   0.2490670  )
       106           Si  tau( 106) = (   0.3334570   0.3332370   0.3328830  )
       107           Si  tau( 107) = (   0.4172730   0.4161020   0.4156370  )
       108           Si  tau( 108) = (   0.4997330   0.4997130   0.3321930  )
       109           Si  tau( 109) = (   0.5829800   0.5822360   0.4160550  )
       110           Si  tau( 110) = (   0.5005440   0.3323350   0.4984950  )
       111           Si  tau( 111) = (   0.5834930   0.4156120   0.5819580  )
       112           Si  tau( 112) = (   0.3338790   0.4998360   0.4982390  )
       113           Si  tau( 113) = (   0.4168630   0.5828430   0.5820020  )
       114           Si  tau( 114) = (   0.3337630   0.3327020   0.6646540  )
       115           Si  tau( 115) = (   0.4165490   0.4159270   0.7480310  )
       116           Si  tau( 116) = (   0.4999700   0.4990230   0.6648090  )
       117           Si  tau( 117) = (   0.5835640   0.5820210   0.7480330  )
       118           Si  tau( 118) = (   0.5008000   0.3343350   0.8322580  )
       119           Si  tau( 119) = (   0.5829910   0.4198620   0.9140290  )
       120           Si  tau( 120) = (   0.3339190   0.4992460   0.8318030  )
       121           Si  tau( 121) = (   0.4174450   0.5821170   0.9152980  )
       122           Si  tau( 122) = (   0.3334610   0.6660770   0.9971890  )
       123           Si  tau( 123) = (   0.4153670   0.7495350   0.0818318  )
       124           Si  tau( 124) = (   0.4981810   0.8295500   0.9953250  )
       125           Si  tau( 125) = (   0.5780800   0.9157500   0.0792578  )
       126           Si  tau( 126) = (   0.4976950   0.6650670   0.1656360  )
       127           Si  tau( 127) = (   0.5780940   0.7455890   0.2533990  )
       128           Si  tau( 128) = (   0.3332120   0.8339590   0.1655690  )
       129           Si  tau( 129) = (   0.4165200   0.9158710   0.2500130  )
       130           Si  tau( 130) = (   0.3321370   0.6665420   0.3316020  )
       131           Si  tau( 131) = (   0.4151700   0.7488340   0.4162410  )
       132           Si  tau( 132) = (   0.4980210   0.8331960   0.3346270  )
       133           Si  tau( 133) = (   0.5779750   0.9147440   0.4222600  )
       134           Si  tau( 134) = (   0.4999920   0.6662960   0.4988610  )
       135           Si  tau( 135) = (   0.5832980   0.7494750   0.5823940  )
       136           Si  tau( 136) = (   0.3325010   0.8327920   0.4992260  )
       137           Si  tau( 137) = (   0.4144980   0.9158470   0.5841150  )
       138           Si  tau( 138) = (   0.3338080   0.6663350   0.6652620  )
       139           Si  tau( 139) = (   0.4176130   0.7489210   0.7485400  )
       140           Si  tau( 140) = (   0.4998640   0.8327650   0.6653470  )
       141           Si  tau( 141) = (   0.5832450   0.9160350   0.7482180  )
       142           Si  tau( 142) = (   0.5006160   0.6650050   0.8316330  )
       143           Si  tau( 143) = (   0.5845600   0.7481020   0.9140520  )
       144           Si  tau( 144) = (   0.3343930   0.8336320   0.8299990  )
       145           Si  tau( 145) = (   0.4165170   0.9162320   0.9147530  )
       146           Si  tau( 146) = (   0.6666990   0.0012322   0.9939010  )
       147           Si  tau( 147) = (   0.7519520   0.0896452   0.0830637  )
       148           Si  tau( 148) = (   0.8400260   0.1659640   0.9981090  )
       149           Si  tau( 149) = (   0.9187260   0.2522260   0.0821063  )
       150           Si  tau( 150) = (   0.8580280   0.0002347   0.1714900  )
       151           Si  tau( 151) = (   0.9283670   0.0959010   0.2546470  )
       152           Si  tau( 152) = (   0.6674700   0.1685060   0.1686930  )
       153           Si  tau( 153) = (   0.7509610   0.2521630   0.2499500  )
       154           Si  tau( 154) = (   0.6575530   0.0014013   0.3423440  )
       155           Si  tau( 155) = (   0.7507840   0.0828049   0.4163730  )
       156           Si  tau( 156) = (   0.8326710   0.1683680   0.3332010  )
       157           Si  tau( 157) = (   0.9173930   0.2497670   0.4163100  )
       158           Si  tau( 158) = (   0.8336190   0.9990160   0.4986840  )
       159           Si  tau( 159) = (   0.9174610   0.0819066   0.5817930  )
       160           Si  tau( 160) = (   0.6671240   0.1665750   0.4988210  )
       161           Si  tau( 161) = (   0.7504710   0.2497670   0.5820490  )
       162           Si  tau( 162) = (   0.6667980   0.9987270   0.6648250  )
       163           Si  tau( 163) = (   0.7501070   0.0818201   0.7477800  )
       164           Si  tau( 164) = (   0.8329730   0.1644740   0.6640170  )
       165           Si  tau( 165) = (   0.9160570   0.2450760   0.7492290  )
       166           Si  tau( 166) = (   0.8345560   0.9990590   0.8302720  )
       167           Si  tau( 167) = (   0.9194240   0.0806579   0.9135590  )
       168           Si  tau( 168) = (   0.6691680   0.1665140   0.8324900  )
       169           Si  tau( 169) = (   0.7548960   0.2474540   0.9154900  )
       170           Si  tau( 170) = (   0.6606440   0.3258560   0.9924370  )
       171           Si  tau( 171) = (   0.7485440   0.4147520   0.0797800  )
       172           Si  tau( 172) = (   0.8334040   0.4974780   0.9972250  )
       173           Si  tau( 173) = (   0.9164580   0.5805360   0.0814052  )
       174           Si  tau( 174) = (   0.8329480   0.3340030   0.1643680  )
       175           Si  tau( 175) = (   0.9167090   0.4161980   0.2485070  )
       176           Si  tau( 176) = (   0.6668160   0.4985320   0.1644580  )
       177           Si  tau( 177) = (   0.7498630   0.5816080   0.2484930  )
       178           Si  tau( 178) = (   0.6666270   0.3340170   0.3328600  )
       179           Si  tau( 179) = (   0.7501340   0.4167540   0.4159900  )
       180           Si  tau( 180) = (   0.8335700   0.4993610   0.3321390  )
       181           Si  tau( 181) = (   0.9164420   0.5833780   0.4151150  )
       182           Si  tau( 182) = (   0.8334070   0.3329050   0.4982940  )
       183           Si  tau( 183) = (   0.9161340   0.4179790   0.5788980  )
       184           Si  tau( 184) = (   0.6664280   0.4993920   0.4993270  )
       185           Si  tau( 185) = (   0.7491860   0.5821390   0.5834280  )
       186           Si  tau( 186) = (   0.6669860   0.3327170   0.6651550  )
       187           Si  tau( 187) = (   0.7514300   0.4148040   0.7480170  )
       188           Si  tau( 188) = (   0.8338340   0.4989500   0.6647570  )
       189           Si  tau( 189) = (   0.9181880   0.5819480   0.7473450  )
       190           Si  tau( 190) = (   0.8353180   0.3317430   0.8310370  )
       191           Si  tau( 191) = (   0.9187520   0.4160880   0.9134320  )
       192           Si  tau( 192) = (   0.6684620   0.4996540   0.8303980  )
       193           Si  tau( 193) = (   0.7512420   0.5820680   0.9142540  )
       194           Si  tau( 194) = (   0.6668200   0.6640410   0.9974770  )
       195           Si  tau( 195) = (   0.7509020   0.7455010   0.0809408  )
       196           Si  tau( 196) = (   0.8315020   0.8321380   0.9973570  )
       197           Si  tau( 197) = (   0.9239690   0.9127240   0.0726206  )
       198           Si  tau( 198) = (   0.8337130   0.6636540   0.1651650  )
       199           Si  tau( 199) = (   0.9170970   0.7477490   0.2467600  )
       200           Si  tau( 200) = (   0.6588850   0.8214040   0.1628480  )
       201           Si  tau( 201) = (   0.7290560   0.8992570   0.2705680  )
       202           Si  tau( 202) = (   0.6668730   0.6643240   0.3328930  )
       203           Si  tau( 203) = (   0.7493950   0.7463330   0.4182190  )
       204           Si  tau( 204) = (   0.8354630   0.8259810   0.3365270  )
       205           Si  tau( 205) = (   0.9167250   0.9178440   0.4139100  )
       206           Si  tau( 206) = (   0.8331260   0.6643180   0.5007090  )
       207           Si  tau( 207) = (   0.9170280   0.7497230   0.5809640  )
       208           Si  tau( 208) = (   0.6670760   0.8323380   0.4997330  )
       209           Si  tau( 209) = (   0.7508110   0.9156730   0.5822990  )
       210           Si  tau( 210) = (   0.6662640   0.6662420   0.6655950  )
       211           Si  tau( 211) = (   0.7507810   0.7488100   0.7481740  )
       212           Si  tau( 212) = (   0.8343190   0.8323310   0.6652890  )
       213           Si  tau( 213) = (   0.9182760   0.9153840   0.7483330  )
       214           Si  tau( 214) = (   0.8345570   0.6650260   0.8306590  )
       215           Si  tau( 215) = (   0.9170740   0.7486220   0.9139210  )
       216           Si  tau( 216) = (   0.6666740   0.8321050   0.8304280  )
       217           Si  tau( 217) = (   0.7502880   0.9160060   0.9122520  )
       218           H   tau( 218) = (   0.9013240   0.9244380   0.2139270  )
       219           H   tau( 219) = (   0.7608200   0.9087690   0.0825938  )
       220           H   tau( 220) = (   0.7988950   0.9767860   0.2461490  )
       221           H   tau( 221) = (   0.6053130   0.2701050   0.9323350  )
       222           H   tau( 222) = (   0.2307140   0.7673620   0.0624758  )
       223           H   tau( 223) = (   0.9367930   0.3945520   0.7314960  )

   Crystallographic axes

     site n.     atom                  positions (cryst. coord.)
         1           Si  tau(   1) = (  0.7093500  0.9618750  0.1374340  )
         2           Si  tau(   2) = (  0.0061926  0.9997230  0.9951010  )
         3           Si  tau(   3) = (  0.0855055  0.0841211  0.0814139  )
         4           Si  tau(   4) = (  0.1682620  0.1671220  0.9978820  )
         5           Si  tau(   5) = (  0.2510280  0.2500010  0.0820547  )
         6           Si  tau(   6) = (  0.1669780  0.0012405  0.1663520  )
         7           Si  tau(   7) = (  0.2506380  0.0835171  0.2498480  )
         8           Si  tau(   8) = (  0.0059202  0.1721480  0.1632410  )
         9           Si  tau(   9) = (  0.0870751  0.2522620  0.2495960  )
        10           Si  tau(  10) = (  0.0033546  0.0025334  0.3346230  )
        11           Si  tau(  11) = (  0.0858466  0.0845272  0.4186560  )
        12           Si  tau(  12) = (  0.1680180  0.1670550  0.3333790  )
        13           Si  tau(  13) = (  0.2503610  0.2505330  0.4168210  )
        14           Si  tau(  14) = (  0.1682540  0.9997370  0.5001890  )
        15           Si  tau(  15) = (  0.2508300  0.0839757  0.5826870  )
        16           Si  tau(  16) = (  0.0006769  0.1673410  0.5007180  )
        17           Si  tau(  17) = (  0.0823898  0.2514500  0.5848170  )
        18           Si  tau(  18) = (  0.0010789  0.9989940  0.6651170  )
        19           Si  tau(  19) = (  0.0848965  0.0817349  0.7484870  )
        20           Si  tau(  20) = (  0.1669440  0.1669540  0.6659090  )
        21           Si  tau(  21) = (  0.2515920  0.2493580  0.7487780  )
        22           Si  tau(  22) = (  0.1686960  0.9988990  0.8319020  )
        23           Si  tau(  23) = (  0.2512280  0.0837872  0.9145150  )
        24           Si  tau(  24) = (  0.0021265  0.1649830  0.8317830  )
        25           Si  tau(  25) = (  0.0841267  0.2499560  0.9149820  )
        26           Si  tau(  26) = (  0.0016711  0.3342100  0.9981410  )
        27           Si  tau(  27) = (  0.0846547  0.4166320  0.0822265  )
        28           Si  tau(  28) = (  0.1672180  0.4999870  0.9987410  )
        29           Si  tau(  29) = (  0.2500350  0.5837280  0.0813990  )
        30           Si  tau(  30) = (  0.1691270  0.3344820  0.1653250  )
        31           Si  tau(  31) = (  0.2514900  0.4170930  0.2489400  )
        32           Si  tau(  32) = (  0.0005611  0.4989700  0.1655210  )
        33           Si  tau(  33) = (  0.0836635  0.5816170  0.2495450  )
        34           Si  tau(  34) = (  0.0001442  0.3328600  0.3318410  )
        35           Si  tau(  35) = (  0.0835903  0.4158350  0.4151430  )
        36           Si  tau(  36) = (  0.1672480  0.4988500  0.3324390  )
        37           Si  tau(  37) = (  0.2498290  0.5829020  0.4153600  )
        38           Si  tau(  38) = (  0.1658690  0.3330140  0.4998840  )
        39           Si  tau(  39) = (  0.2508870  0.4162730  0.5812920  )
        40           Si  tau(  40) = (  0.0008945  0.5003740  0.4972140  )
        41           Si  tau(  41) = (  0.0836869  0.5828190  0.5817450  )
        42           Si  tau(  42) = (  0.9941000  0.3397730  0.6722970  )
        43           Si  tau(  43) = (  0.0879825  0.4178700  0.7499470  )
        44           Si  tau(  44) = (  0.1686560  0.5002800  0.6642980  )
        45           Si  tau(  45) = (  0.2509540  0.5829610  0.7486310  )
        46           Si  tau(  46) = (  0.1688970  0.3324940  0.8324880  )
        47           Si  tau(  47) = (  0.2507930  0.4167000  0.9157960  )
        48           Si  tau(  48) = (  0.0025976  0.5003570  0.8315440  )
        49           Si  tau(  49) = (  0.0842041  0.5839550  0.9160530  )
        50           Si  tau(  50) = (  0.9986890  0.6654070  0.9985520  )
        51           Si  tau(  51) = (  0.0808259  0.7469010  0.0838217  )
        52           Si  tau(  52) = (  0.1740420  0.8254140  0.0057810  )
        53           Si  tau(  53) = (  0.2515360  0.9197070  0.0835371  )
        54           Si  tau(  54) = (  0.1660590  0.6652950  0.1657890  )
        55           Si  tau(  55) = (  0.2489960  0.7503460  0.2479300  )
        56           Si  tau(  56) = (  0.9999660  0.8336350  0.1654300  )
        57           Si  tau(  57) = (  0.0828946  0.9178550  0.2485730  )
        58           Si  tau(  58) = (  0.0003640  0.6660680  0.3316630  )
        59           Si  tau(  59) = (  0.0833842  0.7498280  0.4147230  )
        60           Si  tau(  60) = (  0.1661400  0.8337850  0.3316820  )
        61           Si  tau(  61) = (  0.2498940  0.9163650  0.4155470  )
        62           Si  tau(  62) = (  0.1665250  0.6663440  0.4984010  )
        63           Si  tau(  63) = (  0.2497460  0.7491530  0.5821780  )
        64           Si  tau(  64) = (  0.9999820  0.8335670  0.4972930  )
        65           Si  tau(  65) = (  0.0836942  0.9158650  0.5813550  )
        66           Si  tau(  66) = (  0.0003540  0.6665180  0.6643080  )
        67           Si  tau(  67) = (  0.0835792  0.7493130  0.7478210  )
        68           Si  tau(  68) = (  0.1666960  0.8328360  0.6649090  )
        69           Si  tau(  69) = (  0.2503560  0.9162600  0.7475860  )
        70           Si  tau(  70) = (  0.1666570  0.6660000  0.8308050  )
        71           Si  tau(  71) = (  0.2522050  0.7484620  0.9114230  )
        72           Si  tau(  72) = (  0.0017171  0.8324240  0.8324280  )
        73           Si  tau(  73) = (  0.0883078  0.9134530  0.9151080  )
        74           Si  tau(  74) = (  0.3338870  0.0004707  0.9979560  )
        75           Si  tau(  75) = (  0.4161190  0.0826662  0.0826890  )
        76           Si  tau(  76) = (  0.4997310  0.1670470  0.0013103  )
        77           Si  tau(  77) = (  0.5819050  0.2490530  0.0861502  )
        78           Si  tau(  78) = (  0.4987170  0.9988270  0.1660540  )
        79           Si  tau(  79) = (  0.5840190  0.0814346  0.2481310  )
        80           Si  tau(  80) = (  0.3333850  0.1664060  0.1658480  )
        81           Si  tau(  81) = (  0.4163020  0.2494120  0.2498340  )
        82           Si  tau(  82) = (  0.3336160  0.9996490  0.3328470  )
        83           Si  tau(  83) = (  0.4169310  0.0831649  0.4158010  )
        84           Si  tau(  84) = (  0.5004030  0.1655200  0.3314820  )
        85           Si  tau(  85) = (  0.5836020  0.2490420  0.4147860  )
        86           Si  tau(  86) = (  0.4968220  0.0004378  0.5028460  )
        87           Si  tau(  87) = (  0.5838790  0.0832527  0.5826060  )
        88           Si  tau(  88) = (  0.3341000  0.1668700  0.4991240  )
        89           Si  tau(  89) = (  0.4179740  0.2493150  0.5825910  )
        90           Si  tau(  90) = (  0.3332310  0.0008264  0.6664880  )
        91           Si  tau(  91) = (  0.4179880  0.0830178  0.7492750  )
        92           Si  tau(  92) = (  0.5015560  0.1667610  0.6666980  )
        93           Si  tau(  93) = (  0.5849870  0.2503190  0.7502090  )
        94           Si  tau(  94) = (  0.5009410  0.9996740  0.8325120  )
        95           Si  tau(  95) = (  0.5818200  0.0866036  0.9147230  )
        96           Si  tau(  96) = (  0.3355080  0.1670220  0.8323600  )
        97           Si  tau(  97) = (  0.4182030  0.2507910  0.9164100  )
        98           Si  tau(  98) = (  0.3340250  0.3335240  0.9990180  )
        99           Si  tau(  99) = (  0.4172230  0.4163160  0.0824152  )
       100           Si  tau( 100) = (  0.5002650  0.5002010  0.9996630  )
       101           Si  tau( 101) = (  0.5832790  0.5831780  0.0828397  )
       102           Si  tau( 102) = (  0.4992450  0.3336420  0.1674240  )
       103           Si  tau( 103) = (  0.5834630  0.4168020  0.2492470  )
       104           Si  tau( 104) = (  0.3333430  0.5000460  0.1646770  )
       105           Si  tau( 105) = (  0.4153590  0.5823220  0.2490670  )
       106           Si  tau( 106) = (  0.3334570  0.3332370  0.3328830  )
       107           Si  tau( 107) = (  0.4172730  0.4161020  0.4156370  )
       108           Si  tau( 108) = (  0.4997330  0.4997130  0.3321930  )
       109           Si  tau( 109) = (  0.5829800  0.5822360  0.4160550  )
       110           Si  tau( 110) = (  0.5005440  0.3323350  0.4984950  )
       111           Si  tau( 111) = (  0.5834930  0.4156120  0.5819580  )
       112           Si  tau( 112) = (  0.3338790  0.4998360  0.4982390  )
       113           Si  tau( 113) = (  0.4168630  0.5828430  0.5820020  )
       114           Si  tau( 114) = (  0.3337630  0.3327020  0.6646540  )
       115           Si  tau( 115) = (  0.4165490  0.4159270  0.7480310  )
       116           Si  tau( 116) = (  0.4999700  0.4990230  0.6648090  )
       117           Si  tau( 117) = (  0.5835640  0.5820210  0.7480330  )
       118           Si  tau( 118) = (  0.5008000  0.3343350  0.8322580  )
       119           Si  tau( 119) = (  0.5829910  0.4198620  0.9140290  )
       120           Si  tau( 120) = (  0.3339190  0.4992460  0.8318030  )
       121           Si  tau( 121) = (  0.4174450  0.5821170  0.9152980  )
       122           Si  tau( 122) = (  0.3334610  0.6660770  0.9971890  )
       123           Si  tau( 123) = (  0.4153670  0.7495350  0.0818318  )
       124           Si  tau( 124) = (  0.4981810  0.8295500  0.9953250  )
       125           Si  tau( 125) = (  0.5780800  0.9157500  0.0792578  )
       126           Si  tau( 126) = (  0.4976950  0.6650670  0.1656360  )
       127           Si  tau( 127) = (  0.5780940  0.7455890  0.2533990  )
       128           Si  tau( 128) = (  0.3332120  0.8339590  0.1655690  )
       129           Si  tau( 129) = (  0.4165200  0.9158710  0.2500130  )
       130           Si  tau( 130) = (  0.3321370  0.6665420  0.3316020  )
       131           Si  tau( 131) = (  0.4151700  0.7488340  0.4162410  )
       132           Si  tau( 132) = (  0.4980210  0.8331960  0.3346270  )
       133           Si  tau( 133) = (  0.5779750  0.9147440  0.4222600  )
       134           Si  tau( 134) = (  0.4999920  0.6662960  0.4988610  )
       135           Si  tau( 135) = (  0.5832980  0.7494750  0.5823940  )
       136           Si  tau( 136) = (  0.3325010  0.8327920  0.4992260  )
       137           Si  tau( 137) = (  0.4144980  0.9158470  0.5841150  )
       138           Si  tau( 138) = (  0.3338080  0.6663350  0.6652620  )
       139           Si  tau( 139) = (  0.4176130  0.7489210  0.7485400  )
       140           Si  tau( 140) = (  0.4998640  0.8327650  0.6653470  )
       141           Si  tau( 141) = (  0.5832450  0.9160350  0.7482180  )
       142           Si  tau( 142) = (  0.5006160  0.6650050  0.8316330  )
       143           Si  tau( 143) = (  0.5845600  0.7481020  0.9140520  )
       144           Si  tau( 144) = (  0.3343930  0.8336320  0.8299990  )
       145           Si  tau( 145) = (  0.4165170  0.9162320  0.9147530  )
       146           Si  tau( 146) = (  0.6666990  0.0012322  0.9939010  )
       147           Si  tau( 147) = (  0.7519520  0.0896452  0.0830637  )
       148           Si  tau( 148) = (  0.8400260  0.1659640  0.9981090  )
       149           Si  tau( 149) = (  0.9187260  0.2522260  0.0821063  )
       150           Si  tau( 150) = (  0.8580280  0.0002347  0.1714900  )
       151           Si  tau( 151) = (  0.9283670  0.0959010  0.2546470  )
       152           Si  tau( 152) = (  0.6674700  0.1685060  0.1686930  )
       153           Si  tau( 153) = (  0.7509610  0.2521630  0.2499500  )
       154           Si  tau( 154) = (  0.6575530  0.0014013  0.3423440  )
       155           Si  tau( 155) = (  0.7507840  0.0828049  0.4163730  )
       156           Si  tau( 156) = (  0.8326710  0.1683680  0.3332010  )
       157           Si  tau( 157) = (  0.9173930  0.2497670  0.4163100  )
       158           Si  tau( 158) = (  0.8336190  0.9990160  0.4986840  )
       159           Si  tau( 159) = (  0.9174610  0.0819066  0.5817930  )
       160           Si  tau( 160) = (  0.6671240  0.1665750  0.4988210  )
       161           Si  tau( 161) = (  0.7504710  0.2497670  0.5820490  )
       162           Si  tau( 162) = (  0.6667980  0.9987270  0.6648250  )
       163           Si  tau( 163) = (  0.7501070  0.0818201  0.7477800  )
       164           Si  tau( 164) = (  0.8329730  0.1644740  0.6640170  )
       165           Si  tau( 165) = (  0.9160570  0.2450760  0.7492290  )
       166           Si  tau( 166) = (  0.8345560  0.9990590  0.8302720  )
       167           Si  tau( 167) = (  0.9194240  0.0806579  0.9135590  )
       168           Si  tau( 168) = (  0.6691680  0.1665140  0.8324900  )
       169           Si  tau( 169) = (  0.7548960  0.2474540  0.9154900  )
       170           Si  tau( 170) = (  0.6606440  0.3258560  0.9924370  )
       171           Si  tau( 171) = (  0.7485440  0.4147520  0.0797800  )
       172           Si  tau( 172) = (  0.8334040  0.4974780  0.9972250  )
       173           Si  tau( 173) = (  0.9164580  0.5805360  0.0814052  )
       174           Si  tau( 174) = (  0.8329480  0.3340030  0.1643680  )
       175           Si  tau( 175) = (  0.9167090  0.4161980  0.2485070  )
       176           Si  tau( 176) = (  0.6668160  0.4985320  0.1644580  )
       177           Si  tau( 177) = (  0.7498630  0.5816080  0.2484930  )
       178           Si  tau( 178) = (  0.6666270  0.3340170  0.3328600  )
       179           Si  tau( 179) = (  0.7501340  0.4167540  0.4159900  )
       180           Si  tau( 180) = (  0.8335700  0.4993610  0.3321390  )
       181           Si  tau( 181) = (  0.9164420  0.5833780  0.4151150  )
       182           Si  tau( 182) = (  0.8334070  0.3329050  0.4982940  )
       183           Si  tau( 183) = (  0.9161340  0.4179790  0.5788980  )
       184           Si  tau( 184) = (  0.6664280  0.4993920  0.4993270  )
       185           Si  tau( 185) = (  0.7491860  0.5821390  0.5834280  )
       186           Si  tau( 186) = (  0.6669860  0.3327170  0.6651550  )
       187           Si  tau( 187) = (  0.7514300  0.4148040  0.7480170  )
       188           Si  tau( 188) = (  0.8338340  0.4989500  0.6647570  )
       189           Si  tau( 189) = (  0.9181880  0.5819480  0.7473450  )
       190           Si  tau( 190) = (  0.8353180  0.3317430  0.8310370  )
       191           Si  tau( 191) = (  0.9187520  0.4160880  0.9134320  )
       192           Si  tau( 192) = (  0.6684620  0.4996540  0.8303980  )
       193           Si  tau( 193) = (  0.7512420  0.5820680  0.9142540  )
       194           Si  tau( 194) = (  0.6668200  0.6640410  0.9974770  )
       195           Si  tau( 195) = (  0.7509020  0.7455010  0.0809408  )
       196           Si  tau( 196) = (  0.8315020  0.8321380  0.9973570  )
       197           Si  tau( 197) = (  0.9239690  0.9127240  0.0726206  )
       198           Si  tau( 198) = (  0.8337130  0.6636540  0.1651650  )
       199           Si  tau( 199) = (  0.9170970  0.7477490  0.2467600  )
       200           Si  tau( 200) = (  0.6588850  0.8214040  0.1628480  )
       201           Si  tau( 201) = (  0.7290560  0.8992570  0.2705680  )
       202           Si  tau( 202) = (  0.6668730  0.6643240  0.3328930  )
       203           Si  tau( 203) = (  0.7493950  0.7463330  0.4182190  )
       204           Si  tau( 204) = (  0.8354630  0.8259810  0.3365270  )
       205           Si  tau( 205) = (  0.9167250  0.9178440  0.4139100  )
       206           Si  tau( 206) = (  0.8331260  0.6643180  0.5007090  )
       207           Si  tau( 207) = (  0.9170280  0.7497230  0.5809640  )
       208           Si  tau( 208) = (  0.6670760  0.8323380  0.4997330  )
       209           Si  tau( 209) = (  0.7508110  0.9156730  0.5822990  )
       210           Si  tau( 210) = (  0.6662640  0.6662420  0.6655950  )
       211           Si  tau( 211) = (  0.7507810  0.7488100  0.7481740  )
       212           Si  tau( 212) = (  0.8343190  0.8323310  0.6652890  )
       213           Si  tau( 213) = (  0.9182760  0.9153840  0.7483330  )
       214           Si  tau( 214) = (  0.8345570  0.6650260  0.8306590  )
       215           Si  tau( 215) = (  0.9170740  0.7486220  0.9139210  )
       216           Si  tau( 216) = (  0.6666740  0.8321050  0.8304280  )
       217           Si  tau( 217) = (  0.7502880  0.9160060  0.9122520  )
       218           H   tau( 218) = (  0.9013240  0.9244380  0.2139270  )
       219           H   tau( 219) = (  0.7608200  0.9087690  0.0825938  )
       220           H   tau( 220) = (  0.7988950  0.9767860  0.2461490  )
       221           H   tau( 221) = (  0.6053130  0.2701050  0.9323350  )
       222           H   tau( 222) = (  0.2307140  0.7673620  0.0624758  )
       223           H   tau( 223) = (  0.9367930  0.3945520  0.7314960  )

     number of k points=     8  Marzari-Vanderbilt smearing, width (Ry)=  0.0500
                       cart. coord. in units 2pi/alat
        k(    1) = (   0.0000000   0.0000000   0.0000000), wk =   0.2500000
        k(    2) = (   0.0000000   0.0000000  -0.5000000), wk =   0.2500000
        k(    3) = (   0.0000000  -0.5000000  -0.5000000), wk =   0.2500000
        k(    4) = (  -0.5000000  -0.5000000  -0.5000000), wk =   0.2500000
        k(    5) = (  -0.5000000   0.0000000   0.0000000), wk =   0.2500000
        k(    6) = (   0.0000000  -0.5000000   0.0000000), wk =   0.2500000
        k(    7) = (  -0.5000000   0.0000000   0.5000000), wk =   0.2500000
        k(    8) = (  -0.5000000   0.5000000   0.0000000), wk =   0.2500000

                       cryst. coord.
        k(    1) = (   0.0000000   0.0000000   0.0000000), wk =   0.2500000
        k(    2) = (   0.0000000   0.0000000  -0.5000000), wk =   0.2500000
        k(    3) = (   0.0000000  -0.5000000  -0.5000000), wk =   0.2500000
        k(    4) = (  -0.5000000  -0.5000000  -0.5000000), wk =   0.2500000
        k(    5) = (  -0.5000000   0.0000000   0.0000000), wk =   0.2500000
        k(    6) = (   0.0000000  -0.5000000   0.0000000), wk =   0.2500000
        k(    7) = (  -0.5000000   0.0000000   0.5000000), wk =   0.2500000
        k(    8) = (  -0.5000000   0.5000000   0.0000000), wk =   0.2500000

     Dense  grid:  1078507 G-vectors     FFT dimensions: ( 128, 128, 128)

     Dynamical RAM for                 wfc:     134.75 MB

     Dynamical RAM for     wfc (w. buffer):    1212.75 MB

     Dynamical RAM for           str. fact:       4.11 MB

     Dynamical RAM for           local pot:       0.00 MB

     Dynamical RAM for          nlocal pot:     279.01 MB

     Dynamical RAM for                qrad:       1.75 MB

     Dynamical RAM for          rho,v,vnew:      12.17 MB

     Dynamical RAM for               rhoin:       4.06 MB

     Dynamical RAM for            rho*nmix:      32.91 MB

     Dynamical RAM for           G-vectors:       8.74 MB

     Dynamical RAM for          h,s,v(r/c):     201.11 MB

     Dynamical RAM for          <psi|beta>:       8.68 MB

     Dynamical RAM for                 psi:     539.00 MB

     Dynamical RAM for                hpsi:     539.00 MB

     Dynamical RAM for      wfcinit/wfcrot:     467.00 MB

     Estimated static dynamical RAM per process >       1.53 GB

     Estimated max dynamical RAM per process >       2.79 GB

     Estimated total dynamical RAM >      22.34 GB

     Initial potential from superposition of free atoms

     starting charge  873.87858, renormalised to  874.00000
     Starting wfc are  874 randomized atomic wfcs

     total cpu time spent up to now is      256.5 secs

     Self-consistent Calculation

     iteration #  1     ecut=    42.00 Ry     beta= 0.30
     Davidson diagonalization with overlap
     ethr =  1.00E-02,  avg # of iterations =  3.8

     Threshold (ethr) on eigenvalues was too large:
     Diagonalizing with lowered threshold

     Davidson diagonalization with overlap
     ethr =  7.51E-04,  avg # of iterations =  4.8

     total cpu time spent up to now is     1381.4 secs

     total energy              =   -1715.67622203 Ry
     Harris-Foulkes estimate   =   -1716.66130785 Ry
     estimated scf accuracy    <       6.41078222 Ry

     iteration #  2     ecut=    42.00 Ry     beta= 0.30
     Davidson diagonalization with overlap
     ethr =  7.33E-04,  avg # of iterations =  2.2

     total cpu time spent up to now is     1769.8 secs

     total energy              =   -1715.16462598 Ry
     Harris-Foulkes estimate   =   -1715.83609995 Ry
     estimated scf accuracy    <       2.92898863 Ry

     iteration #  3     ecut=    42.00 Ry     beta= 0.30
     Davidson diagonalization with overlap
     ethr =  3.35E-04,  avg # of iterations =  7.6

     total cpu time spent up to now is     2451.6 secs

     total energy              =   -1714.76836384 Ry
     Harris-Foulkes estimate   =   -1715.93438254 Ry
     estimated scf accuracy    <       6.75937567 Ry

     iteration #  4     ecut=    42.00 Ry     beta= 0.30
     Davidson diagonalization with overlap
     ethr =  3.35E-04,  avg # of iterations =  5.4

     total cpu time spent up to now is     3038.5 secs

     total energy              =   -1715.31513262 Ry
     Harris-Foulkes estimate   =   -1715.38832181 Ry
     estimated scf accuracy    <       0.39806938 Ry

     iteration #  5     ecut=    42.00 Ry     beta= 0.30
     Davidson diagonalization with overlap
     ethr =  4.55E-05,  avg # of iterations =  7.1

     total cpu time spent up to now is     3636.9 secs

     total energy              =   -1715.35028456 Ry
     Harris-Foulkes estimate   =   -1715.36976215 Ry
     estimated scf accuracy    <       0.10007163 Ry

     iteration #  6     ecut=    42.00 Ry     beta= 0.30
     Davidson diagonalization with overlap
     ethr =  1.14E-05,  avg # of iterations = 12.1

     total cpu time spent up to now is     4356.4 secs

     total energy              =   -1715.35773147 Ry
     Harris-Foulkes estimate   =   -1715.36709400 Ry
     estimated scf accuracy    <       0.05577239 Ry

     iteration #  7     ecut=    42.00 Ry     beta= 0.30
     Davidson diagonalization with overlap
     ethr =  6.38E-06,  avg # of iterations =  8.5

     total cpu time spent up to now is     4929.0 secs

     total energy              =   -1715.36192870 Ry
     Harris-Foulkes estimate   =   -1715.36421201 Ry
     estimated scf accuracy    <       0.01426515 Ry

     iteration #  8     ecut=    42.00 Ry     beta= 0.30
     Davidson diagonalization with overlap
     ethr =  1.63E-06,  avg # of iterations =  8.8

     total cpu time spent up to now is     5533.6 secs

     total energy              =   -1715.36266931 Ry
     Harris-Foulkes estimate   =   -1715.36398333 Ry
     estimated scf accuracy    <       0.00714046 Ry

     iteration #  9     ecut=    42.00 Ry     beta= 0.30
     Davidson diagonalization with overlap
     ethr =  8.17E-07,  avg # of iterations =  3.2

     total cpu time spent up to now is     5967.1 secs

     total energy              =   -1715.36326855 Ry
     Harris-Foulkes estimate   =   -1715.36367204 Ry
     estimated scf accuracy    <       0.00209441 Ry

     iteration # 10     ecut=    42.00 Ry     beta= 0.30
     Davidson diagonalization with overlap
     ethr =  2.40E-07,  avg # of iterations =  3.4

     total cpu time spent up to now is     6407.2 secs

     total energy              =   -1715.36347708 Ry
     Harris-Foulkes estimate   =   -1715.36357884 Ry
     estimated scf accuracy    <       0.00050526 Ry

     iteration # 11     ecut=    42.00 Ry     beta= 0.30
     Davidson diagonalization with overlap
     ethr =  5.78E-08,  avg # of iterations =  3.6

     total cpu time spent up to now is     6861.1 secs

     total energy              =   -1715.36353595 Ry
     Harris-Foulkes estimate   =   -1715.36356132 Ry
     estimated scf accuracy    <       0.00013383 Ry

     iteration # 12     ecut=    42.00 Ry     beta= 0.30
     Davidson diagonalization with overlap
     ethr =  1.53E-08,  avg # of iterations =  3.4

     total cpu time spent up to now is     7305.5 secs

     total energy              =   -1715.36355305 Ry
     Harris-Foulkes estimate   =   -1715.36355723 Ry
     estimated scf accuracy    <       0.00003233 Ry

     iteration # 13     ecut=    42.00 Ry     beta= 0.30
     Davidson diagonalization with overlap
     ethr =  3.70E-09,  avg # of iterations =  3.4

     total cpu time spent up to now is     7764.7 secs

     total energy              =   -1715.36355786 Ry
     Harris-Foulkes estimate   =   -1715.36355878 Ry
     estimated scf accuracy    <       0.00001217 Ry

     iteration # 14     ecut=    42.00 Ry     beta= 0.30
     Davidson diagonalization with overlap
     ethr =  1.39E-09,  avg # of iterations =  3.9

     total cpu time spent up to now is     8220.9 secs

     total energy              =   -1715.36355953 Ry
     Harris-Foulkes estimate   =   -1715.36356016 Ry
     estimated scf accuracy    <       0.00000835 Ry

     iteration # 15     ecut=    42.00 Ry     beta= 0.30
     Davidson diagonalization with overlap
     ethr =  9.56E-10,  avg # of iterations =  3.0

     total cpu time spent up to now is     8643.7 secs

     total energy              =   -1715.36356082 Ry
     Harris-Foulkes estimate   =   -1715.36356063 Ry
     estimated scf accuracy    <       0.00000249 Ry

     iteration # 16     ecut=    42.00 Ry     beta= 0.30
     Davidson diagonalization with overlap
     ethr =  2.85E-10,  avg # of iterations =  3.4

     total cpu time spent up to now is     9082.7 secs

     total energy              =   -1715.36356130 Ry
     Harris-Foulkes estimate   =   -1715.36356120 Ry
     estimated scf accuracy    <       0.00000131 Ry

     iteration # 17     ecut=    42.00 Ry     beta= 0.30
     Davidson diagonalization with overlap
     ethr =  1.50E-10,  avg # of iterations =  3.0

     total cpu time spent up to now is     9506.0 secs

     total energy              =   -1715.36356159 Ry
     Harris-Foulkes estimate   =   -1715.36356149 Ry
     estimated scf accuracy    <       0.00000050 Ry

     iteration # 18     ecut=    42.00 Ry     beta= 0.30
     Davidson diagonalization with overlap
     ethr =  5.75E-11,  avg # of iterations =  3.5

     total cpu time spent up to now is     9942.4 secs

     total energy              =   -1715.36356172 Ry
     Harris-Foulkes estimate   =   -1715.36356166 Ry
     estimated scf accuracy    <       0.00000024 Ry

     iteration # 19     ecut=    42.00 Ry     beta= 0.30
     Davidson diagonalization with overlap
     ethr =  2.73E-11,  avg # of iterations =  3.4

     total cpu time spent up to now is    10376.8 secs

     total energy              =   -1715.36356177 Ry
     Harris-Foulkes estimate   =   -1715.36356176 Ry
     estimated scf accuracy    <       0.00000012 Ry

     iteration # 20     ecut=    42.00 Ry     beta= 0.30
     Davidson diagonalization with overlap
     ethr =  1.32E-11,  avg # of iterations =  3.1

     total cpu time spent up to now is    10810.8 secs

     total energy              =   -1715.36356179 Ry
     Harris-Foulkes estimate   =   -1715.36356179 Ry
     estimated scf accuracy    <       0.00000004 Ry

     iteration # 21     ecut=    42.00 Ry     beta= 0.30
     Davidson diagonalization with overlap
     ethr =  4.07E-12,  avg # of iterations =  3.6

     total cpu time spent up to now is    11263.8 secs

     total energy              =   -1715.36356180 Ry
     Harris-Foulkes estimate   =   -1715.36356180 Ry
     estimated scf accuracy    <       0.00000002 Ry

     iteration # 22     ecut=    42.00 Ry     beta= 0.30
     Davidson diagonalization with overlap
     ethr =  2.25E-12,  avg # of iterations =  3.2

     total cpu time spent up to now is    11702.2 secs

     End of self-consistent calculation

          k = 0.0000 0.0000 0.0000 (134683 PWs)   bands (ev):

    -6.3821  -5.6480  -5.3271  -5.3099  -5.2671  -5.2325  -5.2157  -5.0693
    -4.9406  -4.8895  -4.8435  -4.8316  -4.7888  -4.7801  -4.7664  -4.7537
    -4.7520  -4.7450  -4.7404  -4.4751  -4.4573  -4.4200  -4.3984  -4.3560
    -4.3465  -4.3355  -4.3254  -4.0596  -4.0120  -3.9201  -3.8822  -3.8486
    -3.8344  -3.7530  -3.6722  -3.6474  -3.6323  -3.5687  -3.5393  -3.5086
    -3.4900  -3.4733  -3.4658  -3.4522  -3.4440  -3.4385  -3.4347  -3.4327
    -3.4276  -3.4198  -3.4187  -3.4142  -3.4093  -3.4055  -3.4000  -3.3938
    -3.3895  -3.3110  -3.3015  -3.2969  -3.2865  -3.2743  -3.2584  -3.2522
    -3.2375  -3.2365  -3.2320  -3.2304  -3.2270  -3.2183  -3.2141  -3.2110
    -3.2018  -3.1999  -3.1968  -3.1951  -3.1913  -3.1894  -3.1849  -3.1834
    -3.1792  -2.5574  -2.5367  -2.5203  -2.5114  -2.4926  -2.4793  -2.4643
    -2.4634  -2.4621  -2.4551  -2.4489  -2.4457  -1.9655  -1.8186  -1.7335
    -1.7192  -1.7042  -1.6504  -1.6171  -1.5512  -1.5292  -1.5226  -1.5176
    -1.5017  -1.4950  -1.4918  -1.4896  -1.4798  -1.4712  -1.4700  -1.4660
    -1.4536  -1.4498  -1.4419  -1.4369  -1.4335  -1.4301  -1.4298  -1.4254
    -1.4222  -1.4184  -1.4132  -1.3253  -0.9214  -0.7844  -0.7634  -0.7182
    -0.6905  -0.6246  -0.6140  -0.5666  -0.5553  -0.5430  -0.5352  -0.5202
    -0.5122  -0.4919  -0.4653  -0.4611  -0.4419  -0.4063  -0.3859  -0.3803
    -0.3786  -0.3675  -0.3597  -0.3566  -0.3522  -0.3474  -0.3433  -0.3376
    -0.3361  -0.3312  -0.3288  -0.3240  -0.3236  -0.3201  -0.3160   0.2608
     0.3481   0.3974   0.4375   0.4639   0.4771   0.4993   0.5283   0.5479
     0.5572   0.5677   0.5739   0.5817   0.5844   0.5889   0.5919   0.5954
     0.5979   0.6036   0.6069   0.6098   0.6125   0.6172   0.6228   0.6289
     0.7934   0.8083   0.8318   0.8523   0.8904   0.9030   0.9098   0.9869
     1.1482   1.1572   1.1788   1.1973   1.2084   1.2156   1.3543   1.4093
     1.4664   1.5098   1.6735   1.7047   1.7745   1.8045   1.8286   1.8369
     1.8469   1.8617   2.0189   2.0844   2.1232   2.1566   2.1870   2.2279
     2.2909   2.3565   2.4579   2.4614   2.4838   2.4865   2.4953   2.4979
     2.5093   2.5119   2.5163   2.5233   2.5272   2.5339   2.5446   2.5510
     2.5541   2.5618   2.5661   2.5738   2.5807   2.6025   2.6121   2.6148
     2.6217   2.6271   2.6294   2.6309   2.6383   2.6400   2.6415   2.6437
     2.6474   2.6500   2.6517   2.6557   2.6593   2.6614   2.6687   2.6706
     2.6732   2.6736   2.6786   2.6811   2.6856   2.6867   2.6908   2.6929
     2.6951   2.6966   2.7042   2.7062   2.7154   3.1391   3.1716   3.1955
     3.2108   3.2576   3.2832   3.3131   3.3262   3.3654   3.3702   3.3804
     3.3876   3.3946   3.3998   3.4094   3.4111   3.4158   3.4287   3.4379
     3.4434   3.4506   3.4551   3.4568   3.4623   3.4673   3.4732   3.4799
     3.4824   3.4853   3.4880   3.5766   3.6357   3.6451   3.6551   3.6711
     3.7041   3.7123   3.7241   3.7381   3.7566   3.7588   3.7796   3.7854
     3.7976   3.8006   3.8073   3.8139   3.8166   3.8185   3.8238   3.8323
     3.8358   3.8381   3.8465   3.8562   3.8758   3.8791   3.8828   3.8858
     3.8942   3.9068   3.9091   3.9115   3.9213   3.9296   3.9333   3.9339
     3.9441   3.9475   3.9501   3.9550   3.9572   3.9646   3.9647   3.9679
     3.9727   3.9761   3.9819   4.0910   4.1070   4.1077   4.1133   4.1152
     4.1194   4.1250   4.1274   4.1301   4.1368   4.1403   4.1455   4.1513
     4.1589   4.1661   4.1744   4.1824   4.1953   4.3733   4.3760   4.3867
     4.3931   4.4025   4.4127   4.4139   4.4205   4.4262   4.4319   4.4353
     4.4414   4.4539   4.4631   4.4689   4.4702   4.4788   4.4815   4.4834
     4.4925   4.5013   4.5045   4.5115   4.5154   4.5877   4.9154   4.9260
     4.9699   4.9777   4.9964   5.0025   5.0085   5.0269   5.0344   5.0442
     5.0529   5.0659   5.1582   5.1778   5.1912   5.1953   5.2001   5.2064
     5.2136   5.2158   5.2213   5.2259   5.2288   5.2327   5.2339   5.2397
     5.2490   5.2533   5.4382   5.5874   5.6021   5.6113   5.6332   5.6445
     5.6551   5.6589   5.6615   5.6696   5.6718   5.6789   5.6886   5.7440
     5.9402   6.0950   6.1766   6.2225   6.2405   6.2607   6.6972   6.8123
     6.9209   6.9423   6.9561   6.9632   6.9773   7.0848   7.1271   7.1606
     7.2135   7.3034   7.3553   7.4394   7.5011   7.6513   7.7242   7.7500
     7.7624   7.7824   7.7964   7.8115   7.8255   7.8301   7.8514   7.8674
     7.8804   7.9057   7.9084   7.9205   7.9352   7.9420   7.9518   7.9704
     7.9933   8.0202   8.0416   8.0664   8.0816   8.1185   8.1240   8.1433
     8.1653   8.1732   8.1937   8.1963   8.2041   8.2086   8.2174   8.2182
     8.2310   8.2319   8.2342   8.2434   8.2485   8.2536   8.2586   8.2600
     8.2632   8.2833   8.2898   8.2949   8.4234   8.4561   8.5183   8.5799
     8.5907   8.6282   8.6907   8.7217   8.7588   8.7701   8.8223   8.8462
     8.8673   8.8768   8.9055   8.9183   8.9258   8.9346   8.9463   8.9499
     8.9615   8.9667   8.9689   8.9786

     occupation numbers 
     1.0000   1.0000   1.0000   1.0000   1.0000   1.0000   1.0000   1.0000
     1.0000   1.0000   1.0000   1.0000   1.0000   1.0000   1.0000   1.0000
     1.0000   1.0000   1.0000   1.0000   1.0000   1.0000   1.0000   1.0000
     1.0000   1.0000   1.0000   1.0000   1.0000   1.0000   1.0000   1.0000
     1.0000   1.0000   1.0000   1.0000   1.0000   1.0000   1.0000   1.0000
     1.0000   1.0000   1.0000   1.0000   1.0000   1.0000   1.0000   1.0000
     1.0000   1.0000   1.0000   1.0000   1.0000   1.0000   1.0000   1.0000
     1.0000   1.0000   1.0000   1.0000   1.0000   1.0000   1.0000   1.0000
     1.0000   1.0000   1.0000   1.0000   1.0000   1.0000   1.0000   1.0000
     1.0000   1.0000   1.0000   1.0000   1.0000   1.0000   1.0000   1.0000
     1.0000   1.0000   1.0000   1.0000   1.0000   1.0000   1.0000   1.0000
     1.0000   1.0000   1.0000   1.0000   1.0000   1.0000   1.0000   1.0000
     1.0000   1.0000   1.0000   1.0000   1.0000   1.0000   1.0000   1.0000
     1.0000   1.0000   1.0000   1.0000   1.0000   1.0000   1.0000   1.0000
     1.0000   1.0000   1.0000   1.0000   1.0000   1.0000   1.0000   1.0000
     1.0000   1.0000   1.0000   1.0000   1.0000   1.0000   1.0000   1.0000
     1.0000   1.0000   1.0000   1.0000   1.0000   1.0000   1.0000   1.0000
     1.0000   1.0000   1.0000   1.0000   1.0000   1.0000   1.0000   1.0000
     1.0000   1.0000   1.0000   1.0000   1.0000   1.0000   1.0000   1.0000
     1.0000   1.0000   1.0000   1.0000   1.0000   1.0000   1.0000   1.0000
     1.0000   1.0000   1.0000   1.0000   1.0000   1.0000   1.0000   1.0000
     1.0000   1.0000   1.0000   1.0000   1.0000   1.0000   1.0000   1.0000
     1.0000   1.0000   1.0000   1.0000   1.0000   1.0000   1.0000   1.0000
     1.0000   1.0000   1.0000   1.0000   1.0000   1.0000   1.0000   1.0000
     1.0000   1.0000   1.0000   1.0000   1.0000   1.0000   1.0000   1.0000
     1.0000   1.0000   1.0000   1.0000   1.0000   1.0000   1.0000   1.0000
     1.0000   1.0000   1.0000   1.0000   1.0000   1.0000   1.0000   1.0000
     1.0000   1.0000   1.0000   1.0000   1.0000   1.0000   1.0000   1.0000
     1.0000   1.0000   1.0000   1.0000   1.0000   1.0000   1.0000   1.0000
     1.0000   1.0000   1.0000   1.0000   1.0000   1.0000   1.0000   1.0000
     1.0000   1.0000   1.0000   1.0000   1.0000   1.0000   1.0000   1.0000
     1.0000   1.0000   1.0000   1.0000   1.0000   1.0000   1.0000   1.0000
     1.0000   1.0000   1.0000   1.0000   1.0000   1.0000   1.0000   1.0000
     1.0000   1.0000   1.0000   1.0000   1.0000   1.0000   1.0000   1.0000
     1.0000   1.0000   1.0000   1.0000   1.0000   1.0000   1.0000   1.0000
     1.0000   1.0000   1.0000   1.0000   1.0000   1.0000   1.0000   1.0000
     1.0000   1.0000   1.0000   1.0000   1.0000   1.0000   1.0000   1.0000
     1.0000   1.0000   1.0000   1.0000   1.0000   1.0000   1.0000   1.0000
     1.0001   1.0001   1.0001   1.0001   1.0001   1.0001   1.0001   1.0001
     1.0001   1.0001   1.0001   1.0001   1.0001   1.0001   1.0001   1.0002
     1.0002   1.0002   1.0002   1.0002   1.0002   1.0002   1.0002   1.0002
     1.0003   1.0003   1.0003   1.0003   1.0003   1.0003   1.0003   1.0003
     1.0004   1.0004   1.0004   1.0004   1.0004   1.0004   1.0004   1.0004
     1.0005   1.0005   1.0005   1.0011   1.0012   1.0012   1.0012   1.0012
     1.0013   1.0013   1.0013   1.0014   1.0014   1.0015   1.0015   1.0016
     1.0017   1.0017   1.0018   1.0019   1.0021   1.0059   1.0060   1.0064
     1.0066   1.0069   1.0073   1.0074   1.0076   1.0078   1.0081   1.0082
     1.0085   1.0090   1.0095   1.0097   1.0098   1.0102   1.0104   1.0105
     1.0109   1.0114   1.0116   1.0120   1.0122   1.0170   1.0538   1.0552
     1.0613   1.0623   1.0648   1.0656   1.0664   1.0688   1.0697   1.0709
     1.0719   1.0734   1.0814   1.0824   1.0829   1.0830   1.0831   1.0832
     1.0833   1.0833   1.0833   1.0833   1.0833   1.0832   1.0832   1.0831
     1.0829   1.0827   1.0515   0.9820   0.9727   0.9668   0.9518   0.9437
     0.9359   0.9330   0.9311   0.9250   0.9233   0.9176   0.9099   0.8626
     0.6632   0.4927   0.4072   0.3618   0.3447   0.3260   0.0662   0.0383
     0.0217   0.0193   0.0179   0.0172   0.0159   0.0084   0.0065   0.0052
     0.0037   0.0020   0.0014   0.0007   0.0005   0.0001   0.0001   0.0001
     0.0001   0.0000   0.0000   0.0000   0.0000   0.0000   0.0000   0.0000
     0.0000   0.0000   0.0000   0.0000   0.0000   0.0000   0.0000   0.0000
     0.0000   0.0000   0.0000   0.0000   0.0000   0.0000   0.0000   0.0000
     0.0000   0.0000   0.0000   0.0000   0.0000   0.0000   0.0000   0.0000
     0.0000   0.0000   0.0000   0.0000   0.0000   0.0000   0.0000   0.0000
     0.0000   0.0000   0.0000   0.0000   0.0000   0.0000   0.0000   0.0000
     0.0000   0.0000   0.0000   0.0000   0.0000   0.0000   0.0000   0.0000
     0.0000   0.0000   0.0000   0.0000   0.0000   0.0000   0.0000   0.0000
     0.0000   0.0000   0.0000   0.0000

          k = 0.0000 0.0000-0.5000 (134800 PWs)   bands (ev):

    -6.3803  -5.6035  -5.5042  -5.2416  -5.2376  -5.1758  -5.1230  -5.1113
    -5.0880  -5.0845  -4.8919  -4.8085  -4.8019  -4.7204  -4.6846  -4.6789
    -4.6496  -4.6447  -4.6304  -4.6238  -4.3949  -4.3627  -4.2818  -4.2605
    -4.2381  -4.2048  -4.1941  -4.1830  -4.0363  -3.9920  -3.9641  -3.9191
    -3.9039  -3.8567  -3.8287  -3.8256  -3.8176  -3.7934  -3.7800  -3.7714
    -3.7292  -3.7047  -3.7003  -3.6947  -3.5697  -3.5165  -3.4947  -3.4434
    -3.4260  -3.4195  -3.3958  -3.3920  -3.3808  -3.3748  -3.3551  -3.3504
    -3.3432  -3.3384  -3.3348  -3.3308  -3.2232  -3.1866  -3.1821  -3.1688
    -3.1633  -3.1472  -3.1408  -3.1355  -3.0407  -3.0274  -3.0195  -3.0103
    -3.0046  -2.9881  -2.9800  -2.9726  -2.8929  -2.8596  -2.7572  -2.7345
    -2.7276  -2.7155  -2.6794  -2.6712  -2.6695  -2.6610  -2.5630  -2.5328
    -2.5218  -2.5096  -2.5016  -2.4872  -2.4854  -2.4800  -2.0467  -2.0222
    -1.9937  -1.9761  -1.9477  -1.9419  -1.9273  -1.9258  -1.8173  -1.6816
    -1.6585  -1.6131  -1.5597  -1.5339  -1.5215  -1.5162  -1.4780  -1.4387
    -1.4246  -1.4150  -1.4129  -1.1658  -1.1258  -1.0848  -1.0740  -1.0401
    -1.0336  -1.0291  -1.0148  -0.8971  -0.8426  -0.8091  -0.7465  -0.7131
    -0.6725  -0.6532  -0.6184  -0.6080  -0.5890  -0.5803  -0.5773  -0.5536
    -0.5467  -0.5359  -0.4941  -0.4592  -0.4416  -0.4102  -0.4069  -0.4029
    -0.3931  -0.3880  -0.2923  -0.2353  -0.2318  -0.1215  -0.0975  -0.0942
    -0.0636  -0.0232  -0.0036   0.0086   0.0284   0.0337   0.0615   0.0731
     0.0891   0.1122   0.1263   0.1390   0.1537   0.1694   0.1738   0.1787
     0.1838   0.1850   0.1957   0.2036   0.2138   0.2147   0.2242   0.2264
     0.2296   0.2360   0.2463   0.2478   0.6218   0.8949   0.9572   0.9781
     1.0057   1.0229   1.0433   1.0572   1.0675   1.2758   1.2996   1.3519
     1.3654   1.4366   1.4670   1.5163   1.5304   1.5486   1.5663   1.5751
     1.6078   1.6776   1.7157   1.7867   1.8169   1.8267   1.8402   1.8563
     1.8627   1.8945   1.9154   1.9401   1.9814   2.0064   2.0230   2.0599
     2.0715   2.0761   2.0860   2.0934   2.1335   2.1544   2.1783   2.2255
     2.2362   2.2610   2.3144   2.3395   2.3443   2.3575   2.3612   2.3783
     2.3897   2.4128   2.4265   2.4389   2.4524   2.4661   2.4749   2.4821
     2.6348   2.6622   2.6776   2.7059   2.7235   2.7489   2.7588   2.8111
     2.8505   2.8759   2.9016   2.9651   2.9837   2.9960   3.0042   3.0046
     3.0140   3.0172   3.0197   3.0265   3.0300   3.0343   3.0360   3.0452
     3.0554   3.0579   3.0697   3.0742   3.0834   3.0875   3.0892   3.0938
     3.1033   3.1066   3.1112   3.1161   3.1198   3.1290   3.1384   3.1409
     3.1422   3.1481   3.2614   3.2917   3.3242   3.3285   3.3387   3.3517
     3.3728   3.3885   3.4053   3.4206   3.4284   3.4353   3.4420   3.4492
     3.4535   3.4558   3.4602   3.4649   3.4687   3.4718   3.4798   3.4915
     3.4948   3.5040   3.5097   3.5127   3.5150   3.5257   3.5720   3.5798
     3.5932   3.6019   3.6068   3.6245   3.6421   3.6470   3.7089   3.7311
     3.7480   3.7715   3.8093   3.8287   3.8337   3.8401   3.9336   3.9529
     3.9748   3.9809   4.0027   4.0255   4.0330   4.0440   4.0651   4.0759
     4.0922   4.1010   4.1035   4.1097   4.1125   4.1201   4.1264   4.1307
     4.1424   4.1511   4.1561   4.1585   4.1673   4.1781   4.1938   4.2038
     4.2143   4.2189   4.2268   4.2295   4.2342   4.2421   4.2909   4.3073
     4.3200   4.3323   4.3472   4.3994   4.4161   4.4329   4.4564   4.4799
     4.4848   4.5102   4.5234   4.5314   4.5400   4.5522   4.5564   4.5697
     4.5746   4.5779   4.5805   4.5857   4.5933   4.5945   4.5978   4.6046
     4.6131   4.6270   4.6395   4.6416   4.6456   4.6495   4.6626   4.6668
     4.6748   4.6762   4.7707   4.7888   4.8034   4.8114   4.8212   4.8253
     4.8307   4.8328   4.8436   4.9237   4.9344   4.9445   4.9510   4.9582
     4.9680   4.9682   5.0084   5.3458   5.4147   5.4535   5.4614   5.4852
     5.4975   5.5048   5.5130   5.5188   5.5240   5.5330   5.5406   5.5424
     5.5494   5.5562   5.5597   5.5671   5.5750   5.6528   5.7427   5.7642
     5.7901   5.8053   5.8671   6.0778   6.1762   6.2923   6.8206   6.8786
     7.0632   7.1182   7.3365   7.3672   7.4294   7.4820   7.5012   7.5303
     7.5444   7.5679   7.5775   7.5907   7.6133   7.6184   7.6330   7.6433
     7.6495   7.6984   7.7127   7.7500   7.7733   7.7920   7.8438   7.8847
     7.8940   7.9129   7.9180   7.9341   7.9500   7.9580   7.9934   7.9959
     8.0387   8.0607   8.0792   8.1268   8.1313   8.1505   8.1818   8.2336
     8.2801   8.2922   8.3150   8.3361   8.3432   8.3585   8.3625   8.3953
     8.3997   8.4068   8.4310   8.4397   8.4417   8.4500   8.4575   8.4688
     8.4798   8.4869   8.5041   8.5117   8.5259   8.5350   8.5437   8.5510
     8.5535   8.5624   8.5652   8.5752   8.5853   8.5966   8.5982   8.6104
     8.6188   8.6241   8.6340   8.6378   8.6494   8.6608   8.6642   8.6766
     8.6969   8.7046   8.7097   8.7149

     occupation numbers 
     1.0000   1.0000   1.0000   1.0000   1.0000   1.0000   1.0000   1.0000
     1.0000   1.0000   1.0000   1.0000   1.0000   1.0000   1.0000   1.0000
     1.0000   1.0000   1.0000   1.0000   1.0000   1.0000   1.0000   1.0000
     1.0000   1.0000   1.0000   1.0000   1.0000   1.0000   1.0000   1.0000
     1.0000   1.0000   1.0000   1.0000   1.0000   1.0000   1.0000   1.0000
     1.0000   1.0000   1.0000   1.0000   1.0000   1.0000   1.0000   1.0000
     1.0000   1.0000   1.0000   1.0000   1.0000   1.0000   1.0000   1.0000
     1.0000   1.0000   1.0000   1.0000   1.0000   1.0000   1.0000   1.0000
     1.0000   1.0000   1.0000   1.0000   1.0000   1.0000   1.0000   1.0000
     1.0000   1.0000   1.0000   1.0000   1.0000   1.0000   1.0000   1.0000
     1.0000   1.0000   1.0000   1.0000   1.0000   1.0000   1.0000   1.0000
     1.0000   1.0000   1.0000   1.0000   1.0000   1.0000   1.0000   1.0000
     1.0000   1.0000   1.0000   1.0000   1.0000   1.0000   1.0000   1.0000
     1.0000   1.0000   1.0000   1.0000   1.0000   1.0000   1.0000   1.0000
     1.0000   1.0000   1.0000   1.0000   1.0000   1.0000   1.0000   1.0000
     1.0000   1.0000   1.0000   1.0000   1.0000   1.0000   1.0000   1.0000
     1.0000   1.0000   1.0000   1.0000   1.0000   1.0000   1.0000   1.0000
     1.0000   1.0000   1.0000   1.0000   1.0000   1.0000   1.0000   1.0000
     1.0000   1.0000   1.0000   1.0000   1.0000   1.0000   1.0000   1.0000
     1.0000   1.0000   1.0000   1.0000   1.0000   1.0000   1.0000   1.0000
     1.0000   1.0000   1.0000   1.0000   1.0000   1.0000   1.0000   1.0000
     1.0000   1.0000   1.0000   1.0000   1.0000   1.0000   1.0000   1.0000
     1.0000   1.0000   1.0000   1.0000   1.0000   1.0000   1.0000   1.0000
     1.0000   1.0000   1.0000   1.0000   1.0000   1.0000   1.0000   1.0000
     1.0000   1.0000   1.0000   1.0000   1.0000   1.0000   1.0000   1.0000
     1.0000   1.0000   1.0000   1.0000   1.0000   1.0000   1.0000   1.0000
     1.0000   1.0000   1.0000   1.0000   1.0000   1.0000   1.0000   1.0000
     1.0000   1.0000   1.0000   1.0000   1.0000   1.0000   1.0000   1.0000
     1.0000   1.0000   1.0000   1.0000   1.0000   1.0000   1.0000   1.0000
     1.0000   1.0000   1.0000   1.0000   1.0000   1.0000   1.0000   1.0000
     1.0000   1.0000   1.0000   1.0000   1.0000   1.0000   1.0000   1.0000
     1.0000   1.0000   1.0000   1.0000   1.0000   1.0000   1.0000   1.0000
     1.0000   1.0000   1.0000   1.0000   1.0000   1.0000   1.0000   1.0000
     1.0000   1.0000   1.0000   1.0000   1.0000   1.0000   1.0000   1.0000
     1.0000   1.0000   1.0000   1.0000   1.0000   1.0000   1.0000   1.0000
     1.0000   1.0000   1.0000   1.0000   1.0000   1.0000   1.0000   1.0000
     1.0000   1.0000   1.0000   1.0000   1.0000   1.0000   1.0000   1.0000
     1.0000   1.0000   1.0000   1.0000   1.0000   1.0000   1.0000   1.0000
     1.0000   1.0000   1.0000   1.0000   1.0000   1.0000   1.0000   1.0000
     1.0000   1.0000   1.0000   1.0000   1.0000   1.0000   1.0001   1.0001
     1.0001   1.0001   1.0001   1.0002   1.0002   1.0002   1.0003   1.0004
     1.0005   1.0005   1.0006   1.0007   1.0007   1.0008   1.0009   1.0010
     1.0011   1.0011   1.0012   1.0012   1.0012   1.0013   1.0013   1.0014
     1.0015   1.0016   1.0016   1.0017   1.0017   1.0019   1.0021   1.0022
     1.0023   1.0024   1.0025   1.0026   1.0027   1.0028   1.0037   1.0041
     1.0044   1.0047   1.0051   1.0068   1.0074   1.0081   1.0092   1.0103
     1.0105   1.0119   1.0127   1.0132   1.0137   1.0145   1.0148   1.0157
     1.0160   1.0163   1.0165   1.0168   1.0174   1.0175   1.0178   1.0183
     1.0190   1.0201   1.0212   1.0214   1.0217   1.0221   1.0233   1.0237
     1.0244   1.0246   1.0348   1.0370   1.0388   1.0398   1.0411   1.0416
     1.0423   1.0426   1.0440   1.0549   1.0564   1.0578   1.0587   1.0597
     1.0610   1.0610   1.0664   1.0738   1.0586   1.0464   1.0436   1.0343
     1.0291   1.0259   1.0221   1.0194   1.0169   1.0124   1.0085   1.0076
     1.0039   1.0001   0.9982   0.9940   0.9894   0.9376   0.8639   0.8443
     0.8197   0.8049   0.7419   0.5114   0.4076   0.2978   0.0368   0.0273
     0.0096   0.0069   0.0016   0.0013   0.0008   0.0005   0.0005   0.0004
     0.0003   0.0003   0.0002   0.0002   0.0002   0.0002   0.0002   0.0001
     0.0001   0.0001   0.0001   0.0001   0.0000   0.0000   0.0000   0.0000
     0.0000   0.0000   0.0000   0.0000   0.0000   0.0000   0.0000   0.0000
     0.0000   0.0000   0.0000   0.0000   0.0000   0.0000   0.0000   0.0000
     0.0000   0.0000   0.0000   0.0000   0.0000   0.0000   0.0000   0.0000
     0.0000   0.0000   0.0000   0.0000   0.0000   0.0000   0.0000   0.0000
     0.0000   0.0000   0.0000   0.0000   0.0000   0.0000   0.0000   0.0000
     0.0000   0.0000   0.0000   0.0000   0.0000   0.0000   0.0000   0.0000
     0.0000   0.0000   0.0000   0.0000   0.0000   0.0000   0.0000   0.0000
     0.0000   0.0000   0.0000   0.0000

          k = 0.0000-0.5000-0.5000 (134912 PWs)   bands (ev):

    -6.3788  -5.5176  -5.4816  -5.4586  -5.3581  -5.1764  -5.0685  -5.0231
    -5.0163  -4.9872  -4.9830  -4.9663  -4.8439  -4.6866  -4.6328  -4.5664
    -4.5555  -4.5344  -4.4967  -4.4892  -4.3715  -4.3121  -4.2564  -4.2330
    -4.1764  -4.1582  -4.1382  -4.1246  -4.1197  -4.1106  -4.0916  -4.0859
    -4.0770  -4.0750  -4.0654  -4.0615  -3.8871  -3.8283  -3.7714  -3.7334
    -3.7268  -3.6980  -3.6516  -3.6320  -3.6263  -3.6185  -3.6032  -3.5863
    -3.5302  -3.5203  -3.5095  -3.5042  -3.4698  -3.4550  -3.4489  -3.4439
    -3.1852  -3.1567  -3.1324  -3.1052  -3.0808  -3.0538  -3.0373  -3.0270
    -3.0232  -3.0066  -2.9926  -2.9896  -2.9872  -2.9796  -2.9758  -2.9712
    -2.8798  -2.8526  -2.8113  -2.7823  -2.7328  -2.7134  -2.6897  -2.6866
    -2.6457  -2.6122  -2.5991  -2.5904  -2.5556  -2.5436  -2.5322  -2.5197
    -2.5125  -2.5047  -2.5005  -2.4938  -2.4908  -2.4866  -2.4842  -2.4766
    -2.2762  -2.2587  -2.2548  -2.2368  -2.2161  -2.2001  -2.1986  -2.1906
    -1.8937  -1.8089  -1.7188  -1.7122  -1.6110  -1.4147  -1.3413  -1.3268
    -1.3020  -1.0624  -0.9572  -0.9107  -0.8285  -0.7882  -0.7750  -0.7138
    -0.6954  -0.6863  -0.6687  -0.6550  -0.6349  -0.6316  -0.6170  -0.6047
    -0.5749  -0.5167  -0.5104  -0.4952  -0.4893  -0.4842  -0.4804  -0.4720
    -0.4707  -0.4612  -0.4551  -0.4538  -0.4422  -0.4362  -0.4332  -0.4206
    -0.4158  -0.3664  -0.3543  -0.3516  -0.3386  -0.3329  -0.3248  -0.3175
    -0.3152  -0.3141  -0.2960  -0.2927  -0.2850  -0.2838  -0.2833  -0.2803
    -0.2751  -0.2714  -0.2634  -0.2554  -0.2450  -0.2407  -0.2309  -0.2251
     0.2627   0.5546   0.5775   0.6332   0.6584   0.6817   0.7046   0.7376
     0.7575   0.7654   0.7681   0.7805   0.8033   0.8343   0.8409   0.8685
     0.8953   0.9096   0.9120   0.9480   0.9483   0.9603   0.9635   0.9728
     0.9813   0.9844   0.9901   0.9976   1.1038   1.4130   1.4825   1.5839
     1.6422   1.7725   1.8028   1.9545   1.9799   2.0515   2.0630   2.0784
     2.1135   2.1310   2.1521   2.2134   2.2158   2.2383   2.2569   2.2757
     2.2839   2.2916   2.2945   2.2987   2.3063   2.3136   2.3198   2.3237
     2.3242   2.3276   2.3300   2.3348   2.3377   2.3494   2.3623   2.3863
     2.4142   2.4237   2.4529   2.4669   2.4758   2.5217   2.5432   2.5584
     2.5694   2.5827   2.5999   2.6089   2.6184   2.6383   2.6492   2.6571
     2.6680   2.6715   2.6754   2.6838   2.7112   2.7344   2.7471   2.7601
     2.7726   2.7838   2.8022   2.8139   2.8607   2.9204   2.9402   2.9735
     2.9881   3.0220   3.0279   3.0452   3.0779   3.1006   3.1121   3.1253
     3.1343   3.1490   3.1557   3.1631   3.1727   3.1908   3.2050   3.2156
     3.2196   3.2281   3.2356   3.2494   3.2587   3.2775   3.2868   3.2921
     3.3151   3.3216   3.3379   3.3448   3.3916   3.4111   3.4361   3.4658
     3.5188   3.5331   3.5622   3.5653   3.5698   3.5887   3.5933   3.6017
     3.6060   3.6224   3.6285   3.6331   3.6396   3.6439   3.6537   3.6591
     3.6698   3.6942   3.7002   3.7105   3.7262   3.7396   3.7492   3.7560
     3.7644   3.7871   3.7994   3.8066   3.8106   3.8128   3.8171   3.8231
     3.8280   3.8354   3.8502   3.8744   3.8934   3.8968   3.9114   3.9315
     3.9350   3.9597   3.9632   3.9667   3.9861   3.9906   3.9977   4.0005
     4.0497   4.1362   4.1638   4.1943   4.2093   4.2264   4.2326   4.2370
     4.2451   4.2559   4.2688   4.2720   4.2791   4.2798   4.2861   4.2921
     4.3149   4.3194   4.3263   4.3458   4.3476   4.3574   4.3651   4.3758
     4.4989   4.5091   4.5262   4.5371   4.5589   4.5813   4.5964   4.6047
     4.6183   4.6239   4.6350   4.6429   4.6922   4.7779   4.8191   4.8396
     4.8440   4.8669   4.8686   4.8781   4.8885   4.8913   4.9013   4.9091
     4.9128   4.9154   4.9259   4.9307   4.9370   4.9440   4.9498   4.9524
     4.9575   4.9668   4.9757   4.9807   4.9830   5.0091   5.0124   5.0216
     5.0279   5.0518   5.0733   5.0946   5.1104   5.1170   5.1214   5.1376
     5.1468   5.1997   5.2586   5.2676   5.2715   5.2865   5.2961   5.3022
     5.3158   5.3329   5.3525   5.3813   5.3995   5.6786   5.8786   6.0226
     6.0419   6.0713   6.1111   6.1836   6.1981   6.2402   6.8785   7.0564
     7.1516   7.1884   7.3157   7.3694   7.3989   7.4366   7.4753   7.4893
     7.5164   7.5336   7.5476   7.5967   7.6150   7.6367   7.6514   7.6800
     7.6871   7.7010   7.7602   7.7954   7.8309   7.8963   7.9051   7.9295
     7.9424   7.9571   7.9832   7.9867   7.9969   8.0151   8.0288   8.0352
     8.0418   8.0472   8.0594   8.0767   8.0790   8.0979   8.0990   8.1094
     8.1120   8.1149   8.1187   8.1287   8.1345   8.1387   8.1486   8.1948
     8.2228   8.2529   8.2563   8.2790   8.3012   8.3515   8.3588   8.3869
     8.4110   8.4357   8.4676   8.4924   8.5193   8.5424   8.5614   8.6074
     8.6348   8.6400   8.6501   8.6552   8.6693   8.6773   8.6877   8.7032
     8.7073   8.7210   8.7526   8.7608   8.7650   8.7792   8.7944   8.7987
     8.8044   8.8091   8.8237   8.8308

     occupation numbers 
     1.0000   1.0000   1.0000   1.0000   1.0000   1.0000   1.0000   1.0000
     1.0000   1.0000   1.0000   1.0000   1.0000   1.0000   1.0000   1.0000
     1.0000   1.0000   1.0000   1.0000   1.0000   1.0000   1.0000   1.0000
     1.0000   1.0000   1.0000   1.0000   1.0000   1.0000   1.0000   1.0000
     1.0000   1.0000   1.0000   1.0000   1.0000   1.0000   1.0000   1.0000
     1.0000   1.0000   1.0000   1.0000   1.0000   1.0000   1.0000   1.0000
     1.0000   1.0000   1.0000   1.0000   1.0000   1.0000   1.0000   1.0000
     1.0000   1.0000   1.0000   1.0000   1.0000   1.0000   1.0000   1.0000
     1.0000   1.0000   1.0000   1.0000   1.0000   1.0000   1.0000   1.0000
     1.0000   1.0000   1.0000   1.0000   1.0000   1.0000   1.0000   1.0000
     1.0000   1.0000   1.0000   1.0000   1.0000   1.0000   1.0000   1.0000
     1.0000   1.0000   1.0000   1.0000   1.0000   1.0000   1.0000   1.0000
     1.0000   1.0000   1.0000   1.0000   1.0000   1.0000   1.0000   1.0000
     1.0000   1.0000   1.0000   1.0000   1.0000   1.0000   1.0000   1.0000
     1.0000   1.0000   1.0000   1.0000   1.0000   1.0000   1.0000   1.0000
     1.0000   1.0000   1.0000   1.0000   1.0000   1.0000   1.0000   1.0000
     1.0000   1.0000   1.0000   1.0000   1.0000   1.0000   1.0000   1.0000
     1.0000   1.0000   1.0000   1.0000   1.0000   1.0000   1.0000   1.0000
     1.0000   1.0000   1.0000   1.0000   1.0000   1.0000   1.0000   1.0000
     1.0000   1.0000   1.0000   1.0000   1.0000   1.0000   1.0000   1.0000
     1.0000   1.0000   1.0000   1.0000   1.0000   1.0000   1.0000   1.0000
     1.0000   1.0000   1.0000   1.0000   1.0000   1.0000   1.0000   1.0000
     1.0000   1.0000   1.0000   1.0000   1.0000   1.0000   1.0000   1.0000
     1.0000   1.0000   1.0000   1.0000   1.0000   1.0000   1.0000   1.0000
     1.0000   1.0000   1.0000   1.0000   1.0000   1.0000   1.0000   1.0000
     1.0000   1.0000   1.0000   1.0000   1.0000   1.0000   1.0000   1.0000
     1.0000   1.0000   1.0000   1.0000   1.0000   1.0000   1.0000   1.0000
     1.0000   1.0000   1.0000   1.0000   1.0000   1.0000   1.0000   1.0000
     1.0000   1.0000   1.0000   1.0000   1.0000   1.0000   1.0000   1.0000
     1.0000   1.0000   1.0000   1.0000   1.0000   1.0000   1.0000   1.0000
     1.0000   1.0000   1.0000   1.0000   1.0000   1.0000   1.0000   1.0000
     1.0000   1.0000   1.0000   1.0000   1.0000   1.0000   1.0000   1.0000
     1.0000   1.0000   1.0000   1.0000   1.0000   1.0000   1.0000   1.0000
     1.0000   1.0000   1.0000   1.0000   1.0000   1.0000   1.0000   1.0000
     1.0000   1.0000   1.0000   1.0000   1.0000   1.0000   1.0000   1.0000
     1.0000   1.0000   1.0000   1.0000   1.0000   1.0000   1.0000   1.0000
     1.0000   1.0000   1.0000   1.0000   1.0000   1.0000   1.0000   1.0000
     1.0000   1.0000   1.0000   1.0000   1.0000   1.0000   1.0000   1.0000
     1.0000   1.0000   1.0000   1.0000   1.0000   1.0000   1.0000   1.0000
     1.0000   1.0001   1.0001   1.0001   1.0001   1.0001   1.0001   1.0001
     1.0001   1.0001   1.0001   1.0001   1.0001   1.0001   1.0001   1.0001
     1.0002   1.0002   1.0002   1.0002   1.0003   1.0003   1.0003   1.0003
     1.0003   1.0004   1.0004   1.0004   1.0005   1.0005   1.0006   1.0006
     1.0008   1.0014   1.0017   1.0021   1.0023   1.0025   1.0026   1.0027
     1.0028   1.0030   1.0033   1.0033   1.0035   1.0035   1.0036   1.0037
     1.0043   1.0044   1.0046   1.0051   1.0051   1.0054   1.0057   1.0060
     1.0113   1.0119   1.0129   1.0135   1.0149   1.0165   1.0177   1.0183
     1.0194   1.0199   1.0208   1.0215   1.0261   1.0357   1.0408   1.0435
     1.0441   1.0471   1.0473   1.0486   1.0501   1.0504   1.0518   1.0529
     1.0534   1.0538   1.0552   1.0559   1.0568   1.0577   1.0585   1.0589
     1.0596   1.0609   1.0621   1.0627   1.0630   1.0665   1.0669   1.0681
     1.0689   1.0718   1.0742   1.0764   1.0779   1.0785   1.0788   1.0801
     1.0807   1.0831   1.0825   1.0821   1.0819   1.0809   1.0801   1.0795
     1.0780   1.0758   1.0727   1.0670   1.0627   0.9179   0.7297   0.5721
     0.5508   0.5185   0.4755   0.4001   0.3856   0.3450   0.0273   0.0100
     0.0055   0.0044   0.0018   0.0012   0.0010   0.0008   0.0006   0.0005
     0.0004   0.0004   0.0003   0.0002   0.0002   0.0002   0.0001   0.0001
     0.0001   0.0001   0.0001   0.0000   0.0000   0.0000   0.0000   0.0000
     0.0000   0.0000   0.0000   0.0000   0.0000   0.0000   0.0000   0.0000
     0.0000   0.0000   0.0000   0.0000   0.0000   0.0000   0.0000   0.0000
     0.0000   0.0000   0.0000   0.0000   0.0000   0.0000   0.0000   0.0000
     0.0000   0.0000   0.0000   0.0000   0.0000   0.0000   0.0000   0.0000
     0.0000   0.0000   0.0000   0.0000   0.0000   0.0000   0.0000   0.0000
     0.0000   0.0000   0.0000   0.0000   0.0000   0.0000   0.0000   0.0000
     0.0000   0.0000   0.0000   0.0000   0.0000   0.0000   0.0000   0.0000
     0.0000   0.0000   0.0000   0.0000

          k =-0.5000-0.5000-0.5000 (134688 PWs)   bands (ev):

    -6.3772  -5.4498  -5.4378  -5.3789  -5.3735  -5.3433  -5.3244  -5.3057
    -5.0396  -4.8033  -4.6578  -4.6050  -4.5449  -4.5313  -4.5048  -4.4740
    -4.4649  -4.4325  -4.4179  -4.4159  -4.4093  -4.4067  -4.4009  -4.3939
    -4.3906  -4.3863  -4.3817  -4.3779  -4.3746  -4.3704  -4.3673  -4.3627
    -3.9494  -3.8876  -3.8462  -3.7502  -3.7315  -3.7154  -3.6663  -3.6603
    -3.6530  -3.6310  -3.6245  -3.6196  -3.6191  -3.6021  -3.5966  -3.5937
    -3.5900  -3.5843  -3.5825  -3.5776  -3.5749  -3.5720  -3.5689  -3.5663
    -3.3975  -3.3871  -3.3823  -3.3772  -3.0268  -2.9610  -2.9137  -2.8620
    -2.8221  -2.7923  -2.7614  -2.7206  -2.6937  -2.6796  -2.6654  -2.6621
    -2.6514  -2.6444  -2.6425  -2.6412  -2.6373  -2.6305  -2.6293  -2.6220
    -2.6168  -2.6150  -2.6101  -2.6005  -2.5234  -2.5108  -2.5003  -2.4932
[...]
     atom   31 type  1   force =     0.00000264    0.00000126    0.00000091
     atom   32 type  1   force =    -0.00000136   -0.00000003   -0.00000294
     atom   33 type  1   force =     0.00000103    0.00000012   -0.00000045
     atom   34 type  1   force =    -0.00000094    0.00000068   -0.00000114
     atom   35 type  1   force =     0.00000361    0.00000194    0.00000069
     atom   36 type  1   force =     0.00000304    0.00000125    0.00000299
     atom   37 type  1   force =     0.00000630    0.00000178    0.00000620
     atom   38 type  1   force =     0.00000797    0.00000225    0.00000309
     atom   39 type  1   force =     0.00001020    0.00000244    0.00000435
     atom   40 type  1   force =     0.00000124    0.00000310    0.00000063
     atom   41 type  1   force =     0.00000610    0.00000453    0.00000287
     atom   42 type  1   force =     0.00000220   -0.00000286    0.00000394
     atom   43 type  1   force =     0.00000913    0.00000152    0.00000377
     atom   44 type  1   force =     0.00000976    0.00000311    0.00000285
     atom   45 type  1   force =     0.00000839    0.00000256   -0.00000059
     atom   46 type  1   force =     0.00000723   -0.00000116   -0.00000080
     atom   47 type  1   force =     0.00000712   -0.00000020   -0.00000583
     atom   48 type  1   force =     0.00000082    0.00000395    0.00000328
     atom   49 type  1   force =     0.00000268    0.00000462   -0.00000253
     atom   50 type  1   force =     0.00000184    0.00000271   -0.00000577
     atom   51 type  1   force =     0.00000505    0.00000063   -0.00000913
     atom   52 type  1   force =     0.00000477   -0.00000134   -0.00000833
     atom   53 type  1   force =     0.00000299   -0.00000380   -0.00000997
     atom   54 type  1   force =     0.00000361    0.00000194   -0.00000566
     atom   55 type  1   force =     0.00000430   -0.00000056   -0.00000134
     atom   56 type  1   force =     0.00000358   -0.00000473   -0.00000654
     atom   57 type  1   force =     0.00000492   -0.00000223   -0.00000047
     atom   58 type  1   force =    -0.00000045   -0.00000133    0.00000218
     atom   59 type  1   force =     0.00000308   -0.00000078    0.00000627
     atom   60 type  1   force =     0.00000503   -0.00000226    0.00000363
     atom   61 type  1   force =     0.00000542   -0.00000252    0.00000682
     atom   62 type  1   force =     0.00000607    0.00000085    0.00000531
     atom   63 type  1   force =     0.00000676   -0.00000015    0.00000571
     atom   64 type  1   force =    -0.00000068   -0.00000045    0.00000795
     atom   65 type  1   force =     0.00000172   -0.00000137    0.00000818
     atom   66 type  1   force =     0.00000079    0.00000629    0.00000401
     atom   67 type  1   force =     0.00000266    0.00000454    0.00000290
     atom   68 type  1   force =     0.00000377    0.00000042    0.00000540
     atom   69 type  1   force =     0.00000268   -0.00000169    0.00000259
     atom   70 type  1   force =     0.00000581    0.00000567   -0.00000054
     atom   71 type  1   force =     0.00000207    0.00000327   -0.00000370
     atom   72 type  1   force =     0.00000117    0.00000155   -0.00000152
     atom   73 type  1   force =     0.00000429   -0.00000237   -0.00000575
     atom   74 type  1   force =     0.00000229   -0.00000218   -0.00000768
     atom   75 type  1   force =     0.00000310    0.00000038   -0.00000790
     atom   76 type  1   force =     0.00000473    0.00000357   -0.00001129
     atom   77 type  1   force =     0.00000124    0.00000053   -0.00001246
     atom   78 type  1   force =    -0.00000049    0.00000035   -0.00000482
     atom   79 type  1   force =    -0.00000229    0.00000182    0.00000024
     atom   80 type  1   force =     0.00000483   -0.00000096   -0.00000505
     atom   81 type  1   force =     0.00000366   -0.00000037    0.00000012
     atom   82 type  1   force =     0.00000504   -0.00000194    0.00000373
     atom   83 type  1   force =     0.00000401   -0.00000086    0.00000587
     atom   84 type  1   force =     0.00000148   -0.00000049    0.00000351
     atom   85 type  1   force =    -0.00000236    0.00000020    0.00000587
     atom   86 type  1   force =     0.00000128   -0.00000228    0.00000604
     atom   87 type  1   force =    -0.00000211   -0.00000023    0.00000635
     atom   88 type  1   force =     0.00000550    0.00000037    0.00000766
     atom   89 type  1   force =     0.00000380    0.00000232    0.00000769
     atom   90 type  1   force =     0.00000360   -0.00000210    0.00000520
     atom   91 type  1   force =     0.00000413    0.00000070    0.00000279
     atom   92 type  1   force =     0.00000088    0.00000198    0.00000614
     atom   93 type  1   force =    -0.00000328    0.00000093    0.00000678
     atom   94 type  1   force =     0.00000023    0.00000149   -0.00000291
     atom   95 type  1   force =     0.00000129    0.00000456   -0.00000520
     atom   96 type  1   force =     0.00000575    0.00000016   -0.00000252
     atom   97 type  1   force =     0.00000896   -0.00000053   -0.00000713
     atom   98 type  1   force =     0.00000632   -0.00000067   -0.00000904
     atom   99 type  1   force =     0.00000415   -0.00000129   -0.00000866
     atom  100 type  1   force =     0.00000332   -0.00000274   -0.00001130
     atom  101 type  1   force =    -0.00000061   -0.00000186   -0.00000817
     atom  102 type  1   force =     0.00000343   -0.00000207   -0.00000628
     atom  103 type  1   force =    -0.00000015   -0.00000059    0.00000012
     atom  104 type  1   force =     0.00000262    0.00000104   -0.00000286
     atom  105 type  1   force =     0.00000183    0.00000174    0.00000307
     atom  106 type  1   force =     0.00000452    0.00000128    0.00000446
     atom  107 type  1   force =     0.00000288    0.00000239    0.00000843
     atom  108 type  1   force =    -0.00000006    0.00000135    0.00000677
     atom  109 type  1   force =    -0.00000291    0.00000232    0.00000856
     atom  110 type  1   force =    -0.00000005    0.00000222    0.00000881
     atom  111 type  1   force =    -0.00000616    0.00000257    0.00000755
     atom  112 type  1   force =     0.00000628    0.00000186    0.00000771
     atom  113 type  1   force =     0.00000420    0.00000069    0.00000571
     atom  114 type  1   force =     0.00000901    0.00000144    0.00000418
     atom  115 type  1   force =     0.00000613    0.00000049    0.00000017
     atom  116 type  1   force =     0.00000022    0.00000070    0.00000358
     atom  117 type  1   force =    -0.00000401   -0.00000062   -0.00000058
     atom  118 type  1   force =     0.00000504   -0.00000161   -0.00000098
     atom  119 type  1   force =    -0.00000051   -0.00000527   -0.00000717
     atom  120 type  1   force =     0.00000792    0.00000046   -0.00000460
     atom  121 type  1   force =     0.00000320    0.00000009   -0.00000873
     atom  122 type  1   force =     0.00000137    0.00000421   -0.00000690
     atom  123 type  1   force =    -0.00000165    0.00000106   -0.00000781
     atom  124 type  1   force =    -0.00000038    0.00000130   -0.00000730
     atom  125 type  1   force =    -0.00000377    0.00000160   -0.00000890
     atom  126 type  1   force =    -0.00000063    0.00000033   -0.00000249
     atom  127 type  1   force =    -0.00000269   -0.00000080    0.00000304
     atom  128 type  1   force =     0.00000123   -0.00000169   -0.00000617
     atom  129 type  1   force =     0.00000145   -0.00000044    0.00000013
     atom  130 type  1   force =     0.00000384   -0.00000004    0.00000616
     atom  131 type  1   force =     0.00000338   -0.00000134    0.00000747
     atom  132 type  1   force =    -0.00000093   -0.00000215    0.00000713
     atom  133 type  1   force =    -0.00000224   -0.00000139    0.00000761
     atom  134 type  1   force =    -0.00000032   -0.00000101    0.00000805
     atom  135 type  1   force =    -0.00000258   -0.00000192    0.00000515
     atom  136 type  1   force =     0.00000484   -0.00000245    0.00000732
     atom  137 type  1   force =     0.00000331   -0.00000310    0.00000524
     atom  138 type  1   force =     0.00000625    0.00000001    0.00000249
     atom  139 type  1   force =     0.00000239   -0.00000122   -0.00000101
     atom  140 type  1   force =    -0.00000004   -0.00000239    0.00000313
     atom  141 type  1   force =    -0.00000143   -0.00000066    0.00000032
     atom  142 type  1   force =     0.00000072   -0.00000076   -0.00000536
     atom  143 type  1   force =    -0.00000196   -0.00000057   -0.00000805
     atom  144 type  1   force =     0.00000149   -0.00000088   -0.00000108
     atom  145 type  1   force =     0.00000031   -0.00000054   -0.00000639
     atom  146 type  1   force =    -0.00000574    0.00000308   -0.00001172
     atom  147 type  1   force =    -0.00000618    0.00000441   -0.00000992
     atom  148 type  1   force =    -0.00000746    0.00000257   -0.00000863
     atom  149 type  1   force =    -0.00000356    0.00000176   -0.00000619
     atom  150 type  1   force =    -0.00000242    0.00000405   -0.00000488
     atom  151 type  1   force =    -0.00000213    0.00000504    0.00000091
     atom  152 type  1   force =    -0.00000422    0.00000307   -0.00000676
     atom  153 type  1   force =    -0.00000383    0.00000157   -0.00000206
     atom  154 type  1   force =    -0.00000398    0.00000035    0.00000559
     atom  155 type  1   force =    -0.00000607   -0.00000044    0.00000625
     atom  156 type  1   force =    -0.00000298    0.00000191    0.00000179
     atom  157 type  1   force =    -0.00000312   -0.00000115   -0.00000070
     atom  158 type  1   force =    -0.00000423   -0.00000195    0.00000781
     atom  159 type  1   force =    -0.00000353   -0.00000536    0.00000612
     atom  160 type  1   force =    -0.00000519   -0.00000123    0.00000605
     atom  161 type  1   force =    -0.00000999   -0.00000259    0.00000518
     atom  162 type  1   force =    -0.00000294   -0.00000099    0.00000488
     atom  163 type  1   force =    -0.00000578   -0.00000117    0.00000354
     atom  164 type  1   force =    -0.00000718   -0.00000573    0.00000635
     atom  165 type  1   force =    -0.00000586   -0.00000772    0.00000669
     atom  166 type  1   force =    -0.00000374   -0.00000175   -0.00000193
     atom  167 type  1   force =    -0.00000220   -0.00000102   -0.00000629
     atom  168 type  1   force =    -0.00000731    0.00000343    0.00000267
     atom  169 type  1   force =    -0.00001101   -0.00000020   -0.00000267
     atom  170 type  1   force =    -0.00000613   -0.00000454   -0.00001211
     atom  171 type  1   force =    -0.00000560   -0.00000362   -0.00000890
     atom  172 type  1   force =    -0.00000564   -0.00000077   -0.00000420
     atom  173 type  1   force =    -0.00000250   -0.00000073   -0.00000471
     atom  174 type  1   force =    -0.00000381   -0.00000055   -0.00000493
     atom  175 type  1   force =    -0.00000228   -0.00000044   -0.00000211
     atom  176 type  1   force =    -0.00000176   -0.00000160   -0.00000480
     atom  177 type  1   force =    -0.00000241   -0.00000156    0.00000057
     atom  178 type  1   force =    -0.00000274   -0.00000018    0.00000205
     atom  179 type  1   force =    -0.00000620    0.00000087    0.00000228
     atom  180 type  1   force =    -0.00000374    0.00000114    0.00000032
     atom  181 type  1   force =    -0.00000256    0.00000190    0.00000146
     atom  182 type  1   force =    -0.00000680   -0.00000013    0.00000106
     atom  183 type  1   force =    -0.00000477    0.00000280   -0.00000163
     atom  184 type  1   force =    -0.00000798    0.00000308    0.00000703
     atom  185 type  1   force =    -0.00000990    0.00000425    0.00000436
     atom  186 type  1   force =    -0.00001051    0.00000013    0.00000729
     atom  187 type  1   force =    -0.00001431    0.00000051    0.00000503
     atom  188 type  1   force =    -0.00001144    0.00000565    0.00000360
     atom  189 type  1   force =    -0.00000450    0.00000753    0.00000321
     atom  190 type  1   force =    -0.00001220   -0.00000465    0.00000630
     atom  191 type  1   force =    -0.00000541   -0.00000075    0.00000199
     atom  192 type  1   force =    -0.00000901   -0.00000213   -0.00000090
     atom  193 type  1   force =    -0.00000673   -0.00000015   -0.00000477
     atom  194 type  1   force =    -0.00000273   -0.00000036   -0.00000901
     atom  195 type  1   force =    -0.00000332   -0.00000252   -0.00000860
     atom  196 type  1   force =    -0.00000158   -0.00000141   -0.00001205
     atom  197 type  1   force =     0.00000100   -0.00000212   -0.00001298
     atom  198 type  1   force =    -0.00000231   -0.00000229   -0.00000379
     atom  199 type  1   force =    -0.00000123   -0.00000376    0.00000101
     atom  200 type  1   force =    -0.00000513   -0.00000124   -0.00000383
     atom  201 type  1   force =    -0.00000649   -0.00000056    0.00000505
     atom  202 type  1   force =    -0.00000455   -0.00000056    0.00000756
     atom  203 type  1   force =    -0.00000585   -0.00000071    0.00000811
     atom  204 type  1   force =    -0.00000502   -0.00000252    0.00000687
     atom  205 type  1   force =    -0.00000249   -0.00000163    0.00000912
     atom  206 type  1   force =    -0.00000730    0.00000339    0.00000485
     atom  207 type  1   force =    -0.00000318    0.00000340    0.00000565
     atom  208 type  1   force =    -0.00000457   -0.00000260    0.00000746
     atom  209 type  1   force =    -0.00000416   -0.00000132    0.00000689
     atom  210 type  1   force =    -0.00000668    0.00000038    0.00000296
     atom  211 type  1   force =    -0.00000565    0.00000167    0.00000067
     atom  212 type  1   force =    -0.00000414    0.00000076    0.00000408
     atom  213 type  1   force =    -0.00000174   -0.00000052    0.00000280
     atom  214 type  1   force =    -0.00000550    0.00000406   -0.00000130
     atom  215 type  1   force =    -0.00000192    0.00000406   -0.00000567
     atom  216 type  1   force =    -0.00000194    0.00000050   -0.00000355
     atom  217 type  1   force =    -0.00000380    0.00000114   -0.00000927
     atom  218 type  2   force =    -0.00000028   -0.00000036   -0.00000059
     atom  219 type  2   force =    -0.00000148   -0.00000043   -0.00000369
     atom  220 type  2   force =    -0.00000185    0.00000037    0.00000135
     atom  221 type  2   force =     0.00000035    0.00000055   -0.00000112
     atom  222 type  2   force =     0.00000004    0.00000105   -0.00000302
     atom  223 type  2   force =    -0.00000047   -0.00000036    0.00000119

     Total force =     0.089849     Total SCF correction =     0.000115


     Computing stress (Cartesian axis) and pressure

          total   stress  (Ry/bohr**3)                   (kbar)     P=   14.65
   0.00010555   0.00000929  -0.00001167         15.53      1.37     -1.72
   0.00000929   0.00009748  -0.00000345          1.37     14.34     -0.51
  -0.00001167  -0.00000345   0.00009580         -1.72     -0.51     14.09

     kinetic stress (kbar)   2298.10     -0.06     -1.61
                               -0.06   2296.86      0.71
                               -1.61      0.71   2296.82

     local   stress (kbar)  -1215.19     -3.53      2.68
                               -3.53  -1216.25      5.44
                                2.68      5.44  -1216.18

     nonloc. stress (kbar)   2596.79     -0.62     -0.89
                               -0.62   2598.13      0.29
                               -0.89      0.29   2597.80

     hartree stress (kbar)    205.16      0.64     -0.52
                                0.64    202.19     -1.18
                               -0.52     -1.18    202.86

     exc-cor stress (kbar)   -812.19      0.01     -0.02
                                0.01   -812.18     -0.01
                               -0.02     -0.01   -812.19

     corecor stress (kbar)      0.00      0.00      0.00
                                0.00      0.00      0.00
                                0.00      0.00      0.00

     ewald   stress (kbar)  -3057.15      4.93     -1.35
                                4.93  -3054.41     -5.76
                               -1.35     -5.76  -3055.01

     hubbard stress (kbar)      0.00      0.00      0.00
                                0.00      0.00      0.00
                                0.00      0.00      0.00

     london  stress (kbar)      0.00      0.00      0.00
                                0.00      0.00      0.00
                                0.00      0.00      0.00

     DFT-D3  stress (kbar)      0.00      0.00      0.00
                                0.00      0.00      0.00
                                0.00      0.00      0.00

     XDM     stress (kbar)      0.00      0.00      0.00
                                0.00      0.00      0.00
                                0.00      0.00      0.00

     dft-nl  stress (kbar)      0.00      0.00      0.00
                                0.00      0.00      0.00
                                0.00      0.00      0.00

     TS-vdW  stress (kbar)      0.00      0.00      0.00
                                0.00      0.00      0.00
                                0.00      0.00      0.00



     Writing output data file interstitial_optimize2.save

     init_run     :    246.98s CPU    256.13s WALL (       1 calls)
     electrons    :  10909.29s CPU  11446.15s WALL (       1 calls)
     forces       :     84.73s CPU     85.79s WALL (       1 calls)
     stress       :   1108.11s CPU   1115.00s WALL (       1 calls)

     Called by init_run:
     wfcinit      :    243.56s CPU    252.65s WALL (       1 calls)
     wfcinit:atom :      0.79s CPU      1.80s WALL (       8 calls)
     wfcinit:wfcr :    231.86s CPU    238.93s WALL (       8 calls)
     potinit      :      0.42s CPU      0.44s WALL (       1 calls)

     Called by electrons:
     c_bands      :  10112.38s CPU  10605.31s WALL (      23 calls)
     sum_band     :    789.62s CPU    832.54s WALL (      23 calls)
     v_of_rho     :      5.96s CPU      6.19s WALL (      23 calls)
     v_h          :      0.36s CPU      0.38s WALL (      23 calls)
     v_xc         :      5.60s CPU      5.82s WALL (      23 calls)
     mix_rho      :      1.30s CPU      1.78s WALL (      23 calls)

     Called by c_bands:
     init_us_2    :     32.79s CPU     35.42s WALL (     392 calls)
     cegterg      :  10040.82s CPU  10502.62s WALL (     184 calls)

     Called by sum_band:

     Called by *egterg:
     h_psi        :   5428.96s CPU   5615.34s WALL (    1051 calls)
     g_psi        :     14.17s CPU     14.24s WALL (     859 calls)
     cdiaghg      :   1677.10s CPU   1681.72s WALL (    1035 calls)
     cegterg:over :   1263.18s CPU   1279.37s WALL (     859 calls)
     cegterg:upda :    837.38s CPU    854.85s WALL (     859 calls)
     cegterg:last :    461.43s CPU    467.26s WALL (     184 calls)

     Called by h_psi:
     h_psi:pot    :   5387.60s CPU   5567.79s WALL (    1051 calls)
     h_psi:calbec :   1031.49s CPU   1043.31s WALL (    1051 calls)
     vloc_psi     :   3321.60s CPU   3485.22s WALL (    1051 calls)
     add_vuspsi   :   1034.50s CPU   1039.26s WALL (    1051 calls)

     General routines
     calbec       :   1124.83s CPU   1137.19s WALL (    1091 calls)
     fft          :      3.45s CPU      3.75s WALL (     262 calls)
     fftw         :   3668.71s CPU   3865.38s WALL (  553112 calls)

     Parallel routines
     fft_scatt_xy :    505.01s CPU    506.83s WALL (  553374 calls)
     fft_scatt_yz :    924.96s CPU   1109.07s WALL (  553374 calls)

     PWSCF        :     3h25m CPU        3h35m WALL


   This run was terminated on:   0:54:45   8Nov2020            

=------------------------------------------------------------------------------=
   JOB DONE.
=------------------------------------------------------------------------------=
