
     Program PWSCF v.6.2 (svn rev. 14038) starts on  7Nov2020 at  8:53:44 

     This program is part of the open-source Quantum ESPRESSO suite
     for quantum simulation of materials; please cite
         "P. Giannozzi et al., J. Phys.:Condens. Matter 21 395502 (2009);
         "P. Giannozzi et al., J. Phys.:Condens. Matter 29 465901 (2017);
          URL http://www.quantum-espresso.org", 
     in publications or presentations arising from this work. More details at
     http://www.quantum-espresso.org/quote

     Parallel version (MPI), running on     8 processors

     MPI processes distributed on     1 nodes
     R & G space division:  proc/nbgrp/npool/nimage =       8
     Waiting for input...
     Reading input from standard input
Warning: card &IONS ignored
Warning: card / ignored

     Current dimensions of program PWSCF are:
     Max number of different atomic species (ntypx) = 10
     Max number of k-points (npk) =  40000
     Max angular momentum in pseudopotentials (lmaxx) =  3

     Subspace diagonalization in iterative solution of the eigenvalue problem:
     a serial algorithm will be used


     Parallelization info
     --------------------
     sticks:   dense  smooth     PW     G-vecs:    dense   smooth      PW
     Min        1589    1589    419               134811   134811   18265
     Max        1590    1590    420               134814   134814   18266
     Sum       12717   12717   3357              1078507  1078507  146125



     bravais-lattice index     =            0
     lattice parameter (alat)  =      30.8403  a.u.
     unit-cell volume          =   29332.9180 (a.u.)^3
     number of atoms/cell      =          222
     number of atomic types    =            2
     number of electrons       =       873.00
     number of Kohn-Sham states=          524
     kinetic-energy cutoff     =      42.0000  Ry
     charge density cutoff     =     168.0000  Ry
     convergence threshold     =      1.0E-08
     mixing beta               =       0.3000
     number of iterations used =            8  plain     mixing
     Exchange-correlation      = SLA-PW-PBX-PBC ( 1  4  3  4 0 0)

     celldm(1)=  30.840288  celldm(2)=   0.000000  celldm(3)=   0.000000
     celldm(4)=   0.000000  celldm(5)=   0.000000  celldm(6)=   0.000000

     crystal axes: (cart. coord. in units of alat)
               a(1) = (   1.000000   0.000000   0.000000 )  
               a(2) = (   0.000000   1.000000   0.000000 )  
               a(3) = (   0.000000   0.000000   1.000000 )  

     reciprocal axes: (cart. coord. in units 2 pi/alat)
               b(1) = (  1.000000  0.000000  0.000000 )  
               b(2) = (  0.000000  1.000000  0.000000 )  
               b(3) = (  0.000000  0.000000  1.000000 )  


     PseudoPot. # 1 for Si read from file:
     ./Si.pbe-hgh.UPF
     MD5 check sum: 9a9f0f6e09139bfdb36b03ff6bc35900
     Pseudo is Norm-conserving, Zval =  4.0
     Generated in analytical, separable form
     Using radial grid of 1141 points,  3 beta functions with: 
                l(1) =   0
                l(2) =   0
                l(3) =   1

     PseudoPot. # 2 for H  read from file:
     ./H.pbe-hgh.UPF
     MD5 check sum: 5f350582108a937bec95f27f5610ab08
     Pseudo is Norm-conserving, Zval =  1.0
     Generated in analytical, separable form
     Using radial grid of  929 points,  0 beta functions with: 

     atomic species   valence    mass     pseudopotential
        Si             4.00    28.08000     Si( 1.00)
        H              1.00     1.00784     H ( 1.00)

     No symmetry found


                                    s                        frac. trans.

      isym =  1     identity                                     

 cryst.   s( 1) = (     1          0          0      )
                  (     0          1          0      )
                  (     0          0          1      )

 cart.    s( 1) = (  1.0000000  0.0000000  0.0000000 )
                  (  0.0000000  1.0000000  0.0000000 )
                  (  0.0000000  0.0000000  1.0000000 )


   Cartesian axes

     site n.     atom                  positions (alat units)
         1           Si  tau(   1) = (   0.9521410   0.8862020   0.9008560  )
         2           Si  tau(   2) = (   0.0020157   0.0108932   0.0094380  )
         3           Si  tau(   3) = (   0.0875243   0.0910237   0.0902606  )
         4           Si  tau(   4) = (   0.1683180   0.1687490   0.0002333  )
         5           Si  tau(   5) = (   0.2506020   0.2514440   0.0843103  )
         6           Si  tau(   6) = (   0.1679150   0.0011674   0.1687850  )
         7           Si  tau(   7) = (   0.2508950   0.0841747   0.2519780  )
         8           Si  tau(   8) = (   0.9989920   0.1698230   0.1699290  )
         9           Si  tau(   9) = (   0.0835007   0.2516120   0.2518470  )
        10           Si  tau(  10) = (   0.0000559   0.0010715   0.3347690  )
        11           Si  tau(  11) = (   0.0833689   0.0842828   0.4177320  )
        12           Si  tau(  12) = (   0.1665340   0.1673780   0.3341440  )
        13           Si  tau(  13) = (   0.2498330   0.2508200   0.4168150  )
        14           Si  tau(  14) = (   0.1665500   0.0005764   0.5006100  )
        15           Si  tau(  15) = (   0.2494680   0.0834647   0.5843790  )
        16           Si  tau(  16) = (   0.9995260   0.1667670   0.5011170  )
        17           Si  tau(  17) = (   0.0833448   0.2507170   0.5830490  )
        18           Si  tau(  18) = (   0.0020268   0.0028351   0.6668110  )
        19           Si  tau(  19) = (   0.0830923   0.0864837   0.7509330  )
        20           Si  tau(  20) = (   0.1667010   0.1679890   0.6667820  )
        21           Si  tau(  21) = (   0.2498670   0.2503420   0.7508230  )
        22           Si  tau(  22) = (   0.1660920   0.0024889   0.8328610  )
        23           Si  tau(  23) = (   0.2505680   0.0840142   0.9169610  )
        24           Si  tau(  24) = (   0.9994890   0.1685690   0.8343860  )
        25           Si  tau(  25) = (   0.0834366   0.2507580   0.9173760  )
        26           Si  tau(  26) = (   0.0000557   0.3333480   0.0006439  )
        27           Si  tau(  27) = (   0.0823853   0.4174080   0.0833128  )
        28           Si  tau(  28) = (   0.1679020   0.4991050   0.9999220  )
        29           Si  tau(  29) = (   0.2498780   0.5852060   0.0827032  )
        30           Si  tau(  30) = (   0.1660060   0.3341020   0.1669600  )
        31           Si  tau(  31) = (   0.2521660   0.4154410   0.2489730  )
        32           Si  tau(  32) = (   0.9943140   0.4962560   0.1671870  )
        33           Si  tau(  33) = (   0.0879456   0.5789710   0.2371350  )
        34           Si  tau(  34) = (  -0.0000369   0.3326070   0.3356130  )
        35           Si  tau(  35) = (   0.0838958   0.4173840   0.4149270  )
        36           Si  tau(  36) = (   0.1682610   0.4990340   0.3301930  )
        37           Si  tau(  37) = (   0.2495200   0.5837810   0.4148420  )
        38           Si  tau(  38) = (   0.1666310   0.3344010   0.4997860  )
        39           Si  tau(  39) = (   0.2501810   0.4168740   0.5833840  )
        40           Si  tau(  40) = (   0.9990150   0.4979970   0.4981060  )
        41           Si  tau(  41) = (   0.0850606   0.5790340   0.5785950  )
        42           Si  tau(  42) = (   0.0003001   0.3332070   0.6670290  )
        43           Si  tau(  43) = (   0.0838071   0.4162260   0.7502220  )
        44           Si  tau(  44) = (   0.1669290   0.4994220   0.6666800  )
        45           Si  tau(  45) = (   0.2521200   0.5816080   0.7495730  )
        46           Si  tau(  46) = (   0.1671170   0.3335950   0.8342470  )
        47           Si  tau(  47) = (   0.2517510   0.4156800   0.9173990  )
        48           Si  tau(  48) = (   0.9989730   0.4988390   0.8322480  )
        49           Si  tau(  49) = (   0.0862947   0.5796310   0.9130280  )
        50           Si  tau(  50) = (   0.0191385   0.6477640   0.0203414  )
        51           Si  tau(  51) = (   0.0859041   0.7561120   0.0870234  )
        52           Si  tau(  52) = (   0.1683320   0.8352940   0.0010426  )
        53           Si  tau(  53) = (   0.2510730   0.9180960   0.0849103  )
        54           Si  tau(  54) = (   0.1706830   0.6724860   0.1671470  )
        55           Si  tau(  55) = (   0.2526770   0.7519130   0.2538690  )
        56           Si  tau(  56) = (   0.9997130   0.8356140   0.1692070  )
        57           Si  tau(  57) = (   0.0837605   0.9184840   0.2515790  )
        58           Si  tau(  58) = (   0.9953120   0.6714550   0.3408810  )
        59           Si  tau(  59) = (   0.0839308   0.7536790   0.4195620  )
        60           Si  tau(  60) = (   0.1669640   0.8349350   0.3346400  )
        61           Si  tau(  61) = (   0.2505010   0.9176590   0.4178130  )
        62           Si  tau(  62) = (   0.1670510   0.6666910   0.4990300  )
        63           Si  tau(  63) = (   0.2517440   0.7494840   0.5819880  )
        64           Si  tau(  64) = (   0.9988170   0.8348630   0.5017580  )
        65           Si  tau(  65) = (   0.0832332   0.9175230   0.5837010  )
        66           Si  tau(  66) = (   0.0013847   0.6605240   0.6600570  )
        67           Si  tau(  67) = (   0.0939467   0.7385100   0.7382040  )
        68           Si  tau(  68) = (   0.1697980   0.8346600   0.6636650  )
        69           Si  tau(  69) = (   0.2495420   0.9169630   0.7513060  )
        70           Si  tau(  70) = (   0.1710150   0.6646170   0.8338850  )
        71           Si  tau(  71) = (   0.2507090   0.7517130   0.9165950  )
        72           Si  tau(  72) = (   0.9814530   0.7987810   0.7960650  )
        73           Si  tau(  73) = (   0.0876177   0.9285900   0.9282050  )
        74           Si  tau(  74) = (   0.3337360   0.0009005   0.0005712  )
        75           Si  tau(  75) = (   0.4163900   0.0841975   0.0843309  )
        76           Si  tau(  76) = (   0.4991390   0.1677440   0.0011489  )
        77           Si  tau(  77) = (   0.5827450   0.2506390   0.0842533  )
        78           Si  tau(  78) = (   0.4996350   0.0009823   0.1677150  )
        79           Si  tau(  79) = (   0.5832440   0.0837263   0.2509400  )
        80           Si  tau(  80) = (   0.3331200   0.1673440   0.1676260  )
        81           Si  tau(  81) = (   0.4172960   0.2499960   0.2504280  )
        82           Si  tau(  82) = (   0.3340050   0.0009276   0.3349910  )
        83           Si  tau(  83) = (   0.4170660   0.0842228   0.4180880  )
        84           Si  tau(  84) = (   0.5001250   0.1669490   0.3341330  )
        85           Si  tau(  85) = (   0.5823780   0.2498370   0.4185750  )
        86           Si  tau(  86) = (   0.4989740   0.9990900   0.5007530  )
        87           Si  tau(  87) = (   0.5845220   0.0798619   0.5831690  )
        88           Si  tau(  88) = (   0.3317810   0.1665560   0.5001920  )
        89           Si  tau(  89) = (   0.4130200   0.2516100   0.5825360  )
        90           Si  tau(  90) = (   0.3331860   0.0009332   0.6681220  )
        91           Si  tau(  91) = (   0.4180170   0.0855230   0.7489880  )
        92           Si  tau(  92) = (   0.5064930   0.1736480   0.6608470  )
        93           Si  tau(  93) = (   0.5846440   0.2513840   0.7546830  )
        94           Si  tau(  94) = (   0.4998100   0.0015617   0.8332440  )
        95           Si  tau(  95) = (   0.5818980   0.0845590   0.9180500  )
        96           Si  tau(  96) = (   0.3340640   0.1672120   0.8333960  )
        97           Si  tau(  97) = (   0.4162320   0.2504620   0.9177130  )
        98           Si  tau(  98) = (   0.3345770   0.3339200   0.0015560  )
        99           Si  tau(  99) = (   0.4174760   0.4181220   0.0839372  )
       100           Si  tau( 100) = (   0.5003150   0.5012880   0.0003752  )
       101           Si  tau( 101) = (   0.5834230   0.5841410   0.0839136  )
       102           Si  tau( 102) = (   0.4999410   0.3342360   0.1675100  )
       103           Si  tau( 103) = (   0.5833320   0.4169100   0.2510770  )
       104           Si  tau( 104) = (   0.3333690   0.5014080   0.1663460  )
       105           Si  tau( 105) = (   0.4171360   0.5839520   0.2497940  )
       106           Si  tau( 106) = (   0.3342980   0.3329700   0.3335550  )
       107           Si  tau( 107) = (   0.4163310   0.4177990   0.4162780  )
       108           Si  tau( 108) = (   0.4999570   0.5007630   0.3334360  )
       109           Si  tau( 109) = (   0.5830130   0.5833180   0.4176230  )
       110           Si  tau( 110) = (   0.4982210   0.3339350   0.5005120  )
       111           Si  tau( 111) = (   0.5823610   0.4158480   0.5846800  )
       112           Si  tau( 112) = (   0.3323420   0.5005840   0.4993860  )
       113           Si  tau( 113) = (   0.4162490   0.5833400   0.5828690  )
       114           Si  tau( 114) = (   0.3323900   0.3341320   0.6677990  )
       115           Si  tau( 115) = (   0.4175860   0.4162450   0.7501780  )
       116           Si  tau( 116) = (   0.4994330   0.5004260   0.6666710  )
       117           Si  tau( 117) = (   0.5820920   0.5835870   0.7505550  )
       118           Si  tau( 118) = (   0.4995630   0.3339940   0.8354290  )
       119           Si  tau( 119) = (   0.5831930   0.4173130   0.9176950  )
       120           Si  tau( 120) = (   0.3347040   0.4989360   0.8337550  )
       121           Si  tau( 121) = (   0.4165150   0.5838780   0.9169130  )
       122           Si  tau( 122) = (   0.3337630   0.6679510  -0.0001336  )
       123           Si  tau( 123) = (   0.4164830   0.7509900   0.0840569  )
       124           Si  tau( 124) = (   0.4995370   0.8344200   0.0007725  )
       125           Si  tau( 125) = (   0.5825010   0.9173180   0.0847225  )
       126           Si  tau( 126) = (   0.5000860   0.6676030   0.1668020  )
       127           Si  tau( 127) = (   0.5830520   0.7504560   0.2506230  )
       128           Si  tau( 128) = (   0.3341400   0.8346490   0.1681830  )
       129           Si  tau( 129) = (   0.4168970   0.9179420   0.2512140  )
       130           Si  tau( 130) = (   0.3352920   0.6667190   0.3344700  )
       131           Si  tau( 131) = (   0.4180960   0.7504060   0.4172290  )
       132           Si  tau( 132) = (   0.5000260   0.8338890   0.3334070  )
       133           Si  tau( 133) = (   0.5825280   0.9170950   0.4168780  )
       134           Si  tau( 134) = (   0.5003310   0.6668540   0.5009100  )
       135           Si  tau( 135) = (   0.5832250   0.7500420   0.5844270  )
       136           Si  tau( 136) = (   0.3342490   0.8333930   0.4994810  )
       137           Si  tau( 137) = (   0.4155570   0.9166450   0.5844120  )
       138           Si  tau( 138) = (   0.3338820   0.6666270   0.6666980  )
       139           Si  tau( 139) = (   0.4166240   0.7503120   0.7502600  )
       140           Si  tau( 140) = (   0.4995800   0.8336110   0.6670300  )
       141           Si  tau( 141) = (   0.5824090   0.9168240   0.7505740  )
       142           Si  tau( 142) = (   0.4994670   0.6671590   0.8338540  )
       143           Si  tau( 143) = (   0.5821750   0.7504400   0.9176610  )
       144           Si  tau( 144) = (   0.3342170   0.8344030   0.8335620  )
       145           Si  tau( 145) = (   0.4170230   0.9179220   0.9169470  )
       146           Si  tau( 146) = (   0.6641840   0.0029679   0.0029615  )
       147           Si  tau( 147) = (   0.7498510   0.0850942   0.0848382  )
       148           Si  tau( 148) = (   0.8326820   0.1688270   0.0016483  )
       149           Si  tau( 149) = (   0.9162570   0.2515390   0.0847600  )
       150           Si  tau( 150) = (   0.8318620   0.0016266   0.1691120  )
       151           Si  tau( 151) = (   0.9164840   0.0840229   0.2514220  )
       152           Si  tau( 152) = (   0.6659050   0.1675930   0.1678680  )
       153           Si  tau( 153) = (   0.7489930   0.2504170   0.2513920  )
       154           Si  tau( 154) = (   0.6663130   0.0007786   0.3345410  )
       155           Si  tau( 155) = (   0.7502140   0.0841480   0.4169780  )
       156           Si  tau( 156) = (   0.8331670   0.1674490   0.3339520  )
       157           Si  tau( 157) = (   0.9161220   0.2496880   0.4181070  )
       158           Si  tau( 158) = (   0.8329720   0.0004958   0.5002180  )
       159           Si  tau( 159) = (   0.9159160   0.0836739   0.5841240  )
       160           Si  tau( 160) = (   0.6660890   0.1656720   0.5010320  )
       161           Si  tau( 161) = (   0.7485150   0.2494750   0.5848720  )
       162           Si  tau( 162) = (   0.6674120   0.9992730   0.6684860  )
       163           Si  tau( 163) = (   0.7498580   0.0845465   0.7512060  )
       164           Si  tau( 164) = (   0.8331550   0.1671240   0.6676400  )
       165           Si  tau( 165) = (   0.9162650   0.2508700   0.7505300  )
       166           Si  tau( 166) = (   0.8338380   0.0012687   0.8363970  )
       167           Si  tau( 167) = (   0.9171220   0.0863079   0.9195340  )
       168           Si  tau( 168) = (   0.6672060   0.1665110   0.8359210  )
       169           Si  tau( 169) = (   0.7498170   0.2513840   0.9178960  )
       170           Si  tau( 170) = (   0.6659870   0.3338590   0.0011897  )
       171           Si  tau( 171) = (   0.7493050   0.4166790   0.0846649  )
       172           Si  tau( 172) = (   0.8312790   0.4986680   0.9991100  )
       173           Si  tau( 173) = (   0.9105810   0.5804230   0.0864418  )
       174           Si  tau( 174) = (   0.8322980   0.3336230   0.1684780  )
       175           Si  tau( 175) = (   0.9150610   0.4146820   0.2543080  )
       176           Si  tau( 176) = (   0.6661530   0.5003840   0.1674220  )
       177           Si  tau( 177) = (   0.7487540   0.5834120   0.2513000  )
       178           Si  tau( 178) = (   0.6657800   0.3333650   0.3351190  )
       179           Si  tau( 179) = (   0.7489870   0.4165810   0.4182720  )
       180           Si  tau( 180) = (   0.8316430   0.5000570   0.3347380  )
       181           Si  tau( 181) = (   0.9128600   0.5828920   0.4194500  )
       182           Si  tau( 182) = (   0.8319190   0.3323010   0.5007970  )
       183           Si  tau( 183) = (   0.9166150   0.4149350   0.5828160  )
       184           Si  tau( 184) = (   0.6656010   0.4996740   0.5014020  )
       185           Si  tau( 185) = (   0.7487410   0.5833590   0.5845400  )
       186           Si  tau( 186) = (   0.6661410   0.3333740   0.6687430  )
       187           Si  tau( 187) = (   0.7502290   0.4175050   0.7502330  )
       188           Si  tau( 188) = (   0.8332480   0.4986130   0.6651140  )
       189           Si  tau( 189) = (   0.9174000   0.5810740   0.7469130  )
       190           Si  tau( 190) = (   0.8329450   0.3340180   0.8337280  )
       191           Si  tau( 191) = (   0.9166750   0.4162350   0.9171230  )
       192           Si  tau( 192) = (   0.6653820   0.4998570   0.8330230  )
       193           Si  tau( 193) = (   0.7476850   0.5822860   0.9172870  )
       194           Si  tau( 194) = (   0.6663710   0.6678020   0.0004206  )
       195           Si  tau( 195) = (   0.7482270   0.7509110   0.0855360  )
       196           Si  tau( 196) = (   0.8291880   0.8393360   0.0013772  )
       197           Si  tau( 197) = (   0.9180590   0.9212260   0.0864182  )
       198           Si  tau( 198) = (   0.8313490   0.6675980   0.1684840  )
       199           Si  tau( 199) = (   0.9160820   0.7506210   0.2498950  )
       200           Si  tau( 200) = (   0.6660020   0.8346610   0.1681590  )
       201           Si  tau( 201) = (   0.7494890   0.9173510   0.2518490  )
       202           Si  tau( 202) = (   0.6657480   0.6668460   0.3342080  )
       203           Si  tau( 203) = (   0.7490820   0.7503340   0.4169300  )
       204           Si  tau( 204) = (   0.8331340   0.8335810   0.3342810  )
       205           Si  tau( 205) = (   0.9163930   0.9173700   0.4171670  )
       206           Si  tau( 206) = (   0.8312420   0.6676470   0.5016700  )
       207           Si  tau( 207) = (   0.9165750   0.7496580   0.5839720  )
       208           Si  tau( 208) = (   0.6651100   0.8333460   0.4997470  )
       209           Si  tau( 209) = (   0.7480170   0.9172930   0.5817790  )
       210           Si  tau( 210) = (   0.6659990   0.6667870   0.6684170  )
       211           Si  tau( 211) = (   0.7490920   0.7508170   0.7516110  )
       212           Si  tau( 212) = (   0.8300720   0.8333170   0.6650360  )
       213           Si  tau( 213) = (   0.9134270   0.9209280   0.7454010  )
       214           Si  tau( 214) = (   0.8321290   0.6620260   0.8313830  )
       215           Si  tau( 215) = (   0.9280790   0.7304660   0.9203910  )
       216           Si  tau( 216) = (   0.6646620   0.8337200   0.8343730  )
       217           Si  tau( 217) = (   0.7441480   0.9215770   0.9166980  )
       218           H   tau( 218) = (   0.8315190   0.7679290   0.9275620  )
       219           H   tau( 219) = (   0.9123630   0.7528690   0.7592440  )
       220           H   tau( 220) = (   0.5634900   0.2312530   0.6039870  )
       221           H   tau( 221) = (   0.0654737   0.6011660   0.3320410  )
       222           H   tau( 222) = (   0.0738596   0.5930250   0.0787669  )

   Crystallographic axes

     site n.     atom                  positions (cryst. coord.)
         1           Si  tau(   1) = (  0.9521410  0.8862020  0.9008560  )
         2           Si  tau(   2) = (  0.0020157  0.0108932  0.0094380  )
         3           Si  tau(   3) = (  0.0875243  0.0910237  0.0902606  )
         4           Si  tau(   4) = (  0.1683180  0.1687490  0.0002333  )
         5           Si  tau(   5) = (  0.2506020  0.2514440  0.0843103  )
         6           Si  tau(   6) = (  0.1679150  0.0011674  0.1687850  )
         7           Si  tau(   7) = (  0.2508950  0.0841747  0.2519780  )
         8           Si  tau(   8) = (  0.9989920  0.1698230  0.1699290  )
         9           Si  tau(   9) = (  0.0835007  0.2516120  0.2518470  )
        10           Si  tau(  10) = (  0.0000559  0.0010715  0.3347690  )
        11           Si  tau(  11) = (  0.0833689  0.0842828  0.4177320  )
        12           Si  tau(  12) = (  0.1665340  0.1673780  0.3341440  )
        13           Si  tau(  13) = (  0.2498330  0.2508200  0.4168150  )
        14           Si  tau(  14) = (  0.1665500  0.0005764  0.5006100  )
        15           Si  tau(  15) = (  0.2494680  0.0834647  0.5843790  )
        16           Si  tau(  16) = (  0.9995260  0.1667670  0.5011170  )
        17           Si  tau(  17) = (  0.0833448  0.2507170  0.5830490  )
        18           Si  tau(  18) = (  0.0020268  0.0028351  0.6668110  )
        19           Si  tau(  19) = (  0.0830923  0.0864837  0.7509330  )
        20           Si  tau(  20) = (  0.1667010  0.1679890  0.6667820  )
        21           Si  tau(  21) = (  0.2498670  0.2503420  0.7508230  )
        22           Si  tau(  22) = (  0.1660920  0.0024889  0.8328610  )
        23           Si  tau(  23) = (  0.2505680  0.0840142  0.9169610  )
        24           Si  tau(  24) = (  0.9994890  0.1685690  0.8343860  )
        25           Si  tau(  25) = (  0.0834366  0.2507580  0.9173760  )
        26           Si  tau(  26) = (  0.0000557  0.3333480  0.0006439  )
        27           Si  tau(  27) = (  0.0823853  0.4174080  0.0833128  )
        28           Si  tau(  28) = (  0.1679020  0.4991050  0.9999220  )
        29           Si  tau(  29) = (  0.2498780  0.5852060  0.0827032  )
        30           Si  tau(  30) = (  0.1660060  0.3341020  0.1669600  )
        31           Si  tau(  31) = (  0.2521660  0.4154410  0.2489730  )
        32           Si  tau(  32) = (  0.9943140  0.4962560  0.1671870  )
        33           Si  tau(  33) = (  0.0879456  0.5789710  0.2371350  )
        34           Si  tau(  34) = ( -0.0000369  0.3326070  0.3356130  )
        35           Si  tau(  35) = (  0.0838958  0.4173840  0.4149270  )
        36           Si  tau(  36) = (  0.1682610  0.4990340  0.3301930  )
        37           Si  tau(  37) = (  0.2495200  0.5837810  0.4148420  )
        38           Si  tau(  38) = (  0.1666310  0.3344010  0.4997860  )
        39           Si  tau(  39) = (  0.2501810  0.4168740  0.5833840  )
        40           Si  tau(  40) = (  0.9990150  0.4979970  0.4981060  )
        41           Si  tau(  41) = (  0.0850606  0.5790340  0.5785950  )
        42           Si  tau(  42) = (  0.0003001  0.3332070  0.6670290  )
        43           Si  tau(  43) = (  0.0838071  0.4162260  0.7502220  )
        44           Si  tau(  44) = (  0.1669290  0.4994220  0.6666800  )
        45           Si  tau(  45) = (  0.2521200  0.5816080  0.7495730  )
        46           Si  tau(  46) = (  0.1671170  0.3335950  0.8342470  )
        47           Si  tau(  47) = (  0.2517510  0.4156800  0.9173990  )
        48           Si  tau(  48) = (  0.9989730  0.4988390  0.8322480  )
        49           Si  tau(  49) = (  0.0862947  0.5796310  0.9130280  )
        50           Si  tau(  50) = (  0.0191385  0.6477640  0.0203414  )
        51           Si  tau(  51) = (  0.0859041  0.7561120  0.0870234  )
        52           Si  tau(  52) = (  0.1683320  0.8352940  0.0010426  )
        53           Si  tau(  53) = (  0.2510730  0.9180960  0.0849103  )
        54           Si  tau(  54) = (  0.1706830  0.6724860  0.1671470  )
        55           Si  tau(  55) = (  0.2526770  0.7519130  0.2538690  )
        56           Si  tau(  56) = (  0.9997130  0.8356140  0.1692070  )
        57           Si  tau(  57) = (  0.0837605  0.9184840  0.2515790  )
        58           Si  tau(  58) = (  0.9953120  0.6714550  0.3408810  )
        59           Si  tau(  59) = (  0.0839308  0.7536790  0.4195620  )
        60           Si  tau(  60) = (  0.1669640  0.8349350  0.3346400  )
        61           Si  tau(  61) = (  0.2505010  0.9176590  0.4178130  )
        62           Si  tau(  62) = (  0.1670510  0.6666910  0.4990300  )
        63           Si  tau(  63) = (  0.2517440  0.7494840  0.5819880  )
        64           Si  tau(  64) = (  0.9988170  0.8348630  0.5017580  )
        65           Si  tau(  65) = (  0.0832332  0.9175230  0.5837010  )
        66           Si  tau(  66) = (  0.0013847  0.6605240  0.6600570  )
        67           Si  tau(  67) = (  0.0939467  0.7385100  0.7382040  )
        68           Si  tau(  68) = (  0.1697980  0.8346600  0.6636650  )
        69           Si  tau(  69) = (  0.2495420  0.9169630  0.7513060  )
        70           Si  tau(  70) = (  0.1710150  0.6646170  0.8338850  )
        71           Si  tau(  71) = (  0.2507090  0.7517130  0.9165950  )
        72           Si  tau(  72) = (  0.9814530  0.7987810  0.7960650  )
        73           Si  tau(  73) = (  0.0876177  0.9285900  0.9282050  )
        74           Si  tau(  74) = (  0.3337360  0.0009005  0.0005712  )
        75           Si  tau(  75) = (  0.4163900  0.0841975  0.0843309  )
        76           Si  tau(  76) = (  0.4991390  0.1677440  0.0011489  )
        77           Si  tau(  77) = (  0.5827450  0.2506390  0.0842533  )
        78           Si  tau(  78) = (  0.4996350  0.0009823  0.1677150  )
        79           Si  tau(  79) = (  0.5832440  0.0837263  0.2509400  )
        80           Si  tau(  80) = (  0.3331200  0.1673440  0.1676260  )
        81           Si  tau(  81) = (  0.4172960  0.2499960  0.2504280  )
        82           Si  tau(  82) = (  0.3340050  0.0009276  0.3349910  )
        83           Si  tau(  83) = (  0.4170660  0.0842228  0.4180880  )
        84           Si  tau(  84) = (  0.5001250  0.1669490  0.3341330  )
        85           Si  tau(  85) = (  0.5823780  0.2498370  0.4185750  )
        86           Si  tau(  86) = (  0.4989740  0.9990900  0.5007530  )
        87           Si  tau(  87) = (  0.5845220  0.0798619  0.5831690  )
        88           Si  tau(  88) = (  0.3317810  0.1665560  0.5001920  )
        89           Si  tau(  89) = (  0.4130200  0.2516100  0.5825360  )
        90           Si  tau(  90) = (  0.3331860  0.0009332  0.6681220  )
        91           Si  tau(  91) = (  0.4180170  0.0855230  0.7489880  )
        92           Si  tau(  92) = (  0.5064930  0.1736480  0.6608470  )
        93           Si  tau(  93) = (  0.5846440  0.2513840  0.7546830  )
        94           Si  tau(  94) = (  0.4998100  0.0015617  0.8332440  )
        95           Si  tau(  95) = (  0.5818980  0.0845590  0.9180500  )
        96           Si  tau(  96) = (  0.3340640  0.1672120  0.8333960  )
        97           Si  tau(  97) = (  0.4162320  0.2504620  0.9177130  )
        98           Si  tau(  98) = (  0.3345770  0.3339200  0.0015560  )
        99           Si  tau(  99) = (  0.4174760  0.4181220  0.0839372  )
       100           Si  tau( 100) = (  0.5003150  0.5012880  0.0003752  )
       101           Si  tau( 101) = (  0.5834230  0.5841410  0.0839136  )
       102           Si  tau( 102) = (  0.4999410  0.3342360  0.1675100  )
       103           Si  tau( 103) = (  0.5833320  0.4169100  0.2510770  )
       104           Si  tau( 104) = (  0.3333690  0.5014080  0.1663460  )
       105           Si  tau( 105) = (  0.4171360  0.5839520  0.2497940  )
       106           Si  tau( 106) = (  0.3342980  0.3329700  0.3335550  )
       107           Si  tau( 107) = (  0.4163310  0.4177990  0.4162780  )
       108           Si  tau( 108) = (  0.4999570  0.5007630  0.3334360  )
       109           Si  tau( 109) = (  0.5830130  0.5833180  0.4176230  )
       110           Si  tau( 110) = (  0.4982210  0.3339350  0.5005120  )
       111           Si  tau( 111) = (  0.5823610  0.4158480  0.5846800  )
       112           Si  tau( 112) = (  0.3323420  0.5005840  0.4993860  )
       113           Si  tau( 113) = (  0.4162490  0.5833400  0.5828690  )
       114           Si  tau( 114) = (  0.3323900  0.3341320  0.6677990  )
       115           Si  tau( 115) = (  0.4175860  0.4162450  0.7501780  )
       116           Si  tau( 116) = (  0.4994330  0.5004260  0.6666710  )
       117           Si  tau( 117) = (  0.5820920  0.5835870  0.7505550  )
       118           Si  tau( 118) = (  0.4995630  0.3339940  0.8354290  )
       119           Si  tau( 119) = (  0.5831930  0.4173130  0.9176950  )
       120           Si  tau( 120) = (  0.3347040  0.4989360  0.8337550  )
       121           Si  tau( 121) = (  0.4165150  0.5838780  0.9169130  )
       122           Si  tau( 122) = (  0.3337630  0.6679510 -0.0001336  )
       123           Si  tau( 123) = (  0.4164830  0.7509900  0.0840569  )
       124           Si  tau( 124) = (  0.4995370  0.8344200  0.0007725  )
       125           Si  tau( 125) = (  0.5825010  0.9173180  0.0847225  )
       126           Si  tau( 126) = (  0.5000860  0.6676030  0.1668020  )
       127           Si  tau( 127) = (  0.5830520  0.7504560  0.2506230  )
       128           Si  tau( 128) = (  0.3341400  0.8346490  0.1681830  )
       129           Si  tau( 129) = (  0.4168970  0.9179420  0.2512140  )
       130           Si  tau( 130) = (  0.3352920  0.6667190  0.3344700  )
       131           Si  tau( 131) = (  0.4180960  0.7504060  0.4172290  )
       132           Si  tau( 132) = (  0.5000260  0.8338890  0.3334070  )
       133           Si  tau( 133) = (  0.5825280  0.9170950  0.4168780  )
       134           Si  tau( 134) = (  0.5003310  0.6668540  0.5009100  )
       135           Si  tau( 135) = (  0.5832250  0.7500420  0.5844270  )
       136           Si  tau( 136) = (  0.3342490  0.8333930  0.4994810  )
       137           Si  tau( 137) = (  0.4155570  0.9166450  0.5844120  )
       138           Si  tau( 138) = (  0.3338820  0.6666270  0.6666980  )
       139           Si  tau( 139) = (  0.4166240  0.7503120  0.7502600  )
       140           Si  tau( 140) = (  0.4995800  0.8336110  0.6670300  )
       141           Si  tau( 141) = (  0.5824090  0.9168240  0.7505740  )
       142           Si  tau( 142) = (  0.4994670  0.6671590  0.8338540  )
       143           Si  tau( 143) = (  0.5821750  0.7504400  0.9176610  )
       144           Si  tau( 144) = (  0.3342170  0.8344030  0.8335620  )
       145           Si  tau( 145) = (  0.4170230  0.9179220  0.9169470  )
       146           Si  tau( 146) = (  0.6641840  0.0029679  0.0029615  )
       147           Si  tau( 147) = (  0.7498510  0.0850942  0.0848382  )
       148           Si  tau( 148) = (  0.8326820  0.1688270  0.0016483  )
       149           Si  tau( 149) = (  0.9162570  0.2515390  0.0847600  )
       150           Si  tau( 150) = (  0.8318620  0.0016266  0.1691120  )
       151           Si  tau( 151) = (  0.9164840  0.0840229  0.2514220  )
       152           Si  tau( 152) = (  0.6659050  0.1675930  0.1678680  )
       153           Si  tau( 153) = (  0.7489930  0.2504170  0.2513920  )
       154           Si  tau( 154) = (  0.6663130  0.0007786  0.3345410  )
       155           Si  tau( 155) = (  0.7502140  0.0841480  0.4169780  )
       156           Si  tau( 156) = (  0.8331670  0.1674490  0.3339520  )
       157           Si  tau( 157) = (  0.9161220  0.2496880  0.4181070  )
       158           Si  tau( 158) = (  0.8329720  0.0004958  0.5002180  )
       159           Si  tau( 159) = (  0.9159160  0.0836739  0.5841240  )
       160           Si  tau( 160) = (  0.6660890  0.1656720  0.5010320  )
       161           Si  tau( 161) = (  0.7485150  0.2494750  0.5848720  )
       162           Si  tau( 162) = (  0.6674120  0.9992730  0.6684860  )
       163           Si  tau( 163) = (  0.7498580  0.0845465  0.7512060  )
       164           Si  tau( 164) = (  0.8331550  0.1671240  0.6676400  )
       165           Si  tau( 165) = (  0.9162650  0.2508700  0.7505300  )
       166           Si  tau( 166) = (  0.8338380  0.0012687  0.8363970  )
       167           Si  tau( 167) = (  0.9171220  0.0863079  0.9195340  )
       168           Si  tau( 168) = (  0.6672060  0.1665110  0.8359210  )
       169           Si  tau( 169) = (  0.7498170  0.2513840  0.9178960  )
       170           Si  tau( 170) = (  0.6659870  0.3338590  0.0011897  )
       171           Si  tau( 171) = (  0.7493050  0.4166790  0.0846649  )
       172           Si  tau( 172) = (  0.8312790  0.4986680  0.9991100  )
       173           Si  tau( 173) = (  0.9105810  0.5804230  0.0864418  )
       174           Si  tau( 174) = (  0.8322980  0.3336230  0.1684780  )
       175           Si  tau( 175) = (  0.9150610  0.4146820  0.2543080  )
       176           Si  tau( 176) = (  0.6661530  0.5003840  0.1674220  )
       177           Si  tau( 177) = (  0.7487540  0.5834120  0.2513000  )
       178           Si  tau( 178) = (  0.6657800  0.3333650  0.3351190  )
       179           Si  tau( 179) = (  0.7489870  0.4165810  0.4182720  )
       180           Si  tau( 180) = (  0.8316430  0.5000570  0.3347380  )
       181           Si  tau( 181) = (  0.9128600  0.5828920  0.4194500  )
       182           Si  tau( 182) = (  0.8319190  0.3323010  0.5007970  )
       183           Si  tau( 183) = (  0.9166150  0.4149350  0.5828160  )
       184           Si  tau( 184) = (  0.6656010  0.4996740  0.5014020  )
       185           Si  tau( 185) = (  0.7487410  0.5833590  0.5845400  )
       186           Si  tau( 186) = (  0.6661410  0.3333740  0.6687430  )
       187           Si  tau( 187) = (  0.7502290  0.4175050  0.7502330  )
       188           Si  tau( 188) = (  0.8332480  0.4986130  0.6651140  )
       189           Si  tau( 189) = (  0.9174000  0.5810740  0.7469130  )
       190           Si  tau( 190) = (  0.8329450  0.3340180  0.8337280  )
       191           Si  tau( 191) = (  0.9166750  0.4162350  0.9171230  )
       192           Si  tau( 192) = (  0.6653820  0.4998570  0.8330230  )
       193           Si  tau( 193) = (  0.7476850  0.5822860  0.9172870  )
       194           Si  tau( 194) = (  0.6663710  0.6678020  0.0004206  )
       195           Si  tau( 195) = (  0.7482270  0.7509110  0.0855360  )
       196           Si  tau( 196) = (  0.8291880  0.8393360  0.0013772  )
       197           Si  tau( 197) = (  0.9180590  0.9212260  0.0864182  )
       198           Si  tau( 198) = (  0.8313490  0.6675980  0.1684840  )
       199           Si  tau( 199) = (  0.9160820  0.7506210  0.2498950  )
       200           Si  tau( 200) = (  0.6660020  0.8346610  0.1681590  )
       201           Si  tau( 201) = (  0.7494890  0.9173510  0.2518490  )
       202           Si  tau( 202) = (  0.6657480  0.6668460  0.3342080  )
       203           Si  tau( 203) = (  0.7490820  0.7503340  0.4169300  )
       204           Si  tau( 204) = (  0.8331340  0.8335810  0.3342810  )
       205           Si  tau( 205) = (  0.9163930  0.9173700  0.4171670  )
       206           Si  tau( 206) = (  0.8312420  0.6676470  0.5016700  )
       207           Si  tau( 207) = (  0.9165750  0.7496580  0.5839720  )
       208           Si  tau( 208) = (  0.6651100  0.8333460  0.4997470  )
       209           Si  tau( 209) = (  0.7480170  0.9172930  0.5817790  )
       210           Si  tau( 210) = (  0.6659990  0.6667870  0.6684170  )
       211           Si  tau( 211) = (  0.7490920  0.7508170  0.7516110  )
       212           Si  tau( 212) = (  0.8300720  0.8333170  0.6650360  )
       213           Si  tau( 213) = (  0.9134270  0.9209280  0.7454010  )
       214           Si  tau( 214) = (  0.8321290  0.6620260  0.8313830  )
       215           Si  tau( 215) = (  0.9280790  0.7304660  0.9203910  )
       216           Si  tau( 216) = (  0.6646620  0.8337200  0.8343730  )
       217           Si  tau( 217) = (  0.7441480  0.9215770  0.9166980  )
       218           H   tau( 218) = (  0.8315190  0.7679290  0.9275620  )
       219           H   tau( 219) = (  0.9123630  0.7528690  0.7592440  )
       220           H   tau( 220) = (  0.5634900  0.2312530  0.6039870  )
       221           H   tau( 221) = (  0.0654737  0.6011660  0.3320410  )
       222           H   tau( 222) = (  0.0738596  0.5930250  0.0787669  )

     number of k points=     8  Marzari-Vanderbilt smearing, width (Ry)=  0.0500
                       cart. coord. in units 2pi/alat
        k(    1) = (   0.0000000   0.0000000   0.0000000), wk =   0.2500000
        k(    2) = (   0.0000000   0.0000000  -0.5000000), wk =   0.2500000
        k(    3) = (   0.0000000  -0.5000000  -0.5000000), wk =   0.2500000
        k(    4) = (  -0.5000000  -0.5000000  -0.5000000), wk =   0.2500000
        k(    5) = (  -0.5000000   0.0000000   0.0000000), wk =   0.2500000
        k(    6) = (   0.0000000  -0.5000000   0.0000000), wk =   0.2500000
        k(    7) = (  -0.5000000   0.0000000   0.5000000), wk =   0.2500000
        k(    8) = (  -0.5000000   0.5000000   0.0000000), wk =   0.2500000

                       cryst. coord.
        k(    1) = (   0.0000000   0.0000000   0.0000000), wk =   0.2500000
        k(    2) = (   0.0000000   0.0000000  -0.5000000), wk =   0.2500000
        k(    3) = (   0.0000000  -0.5000000  -0.5000000), wk =   0.2500000
        k(    4) = (  -0.5000000  -0.5000000  -0.5000000), wk =   0.2500000
        k(    5) = (  -0.5000000   0.0000000   0.0000000), wk =   0.2500000
        k(    6) = (   0.0000000  -0.5000000   0.0000000), wk =   0.2500000
        k(    7) = (  -0.5000000   0.0000000   0.5000000), wk =   0.2500000
        k(    8) = (  -0.5000000   0.5000000   0.0000000), wk =   0.2500000

     Dense  grid:  1078507 G-vectors     FFT dimensions: ( 128, 128, 128)

     Dynamical RAM for                 wfc:     134.75 MB

     Dynamical RAM for     wfc (w. buffer):    1212.75 MB

     Dynamical RAM for           str. fact:       4.11 MB

     Dynamical RAM for           local pot:       0.00 MB

     Dynamical RAM for          nlocal pot:     279.01 MB

     Dynamical RAM for                qrad:       1.75 MB

     Dynamical RAM for          rho,v,vnew:      12.17 MB

     Dynamical RAM for               rhoin:       4.06 MB

     Dynamical RAM for            rho*nmix:      32.91 MB

     Dynamical RAM for           G-vectors:       8.74 MB

     Dynamical RAM for          h,s,v(r/c):     201.11 MB

     Dynamical RAM for          <psi|beta>:       8.68 MB

     Dynamical RAM for                 psi:     539.00 MB

     Dynamical RAM for                hpsi:     539.00 MB

     Dynamical RAM for      wfcinit/wfcrot:     466.45 MB

     Estimated static dynamical RAM per process >       1.53 GB

     Estimated max dynamical RAM per process >       2.79 GB

     Estimated total dynamical RAM >      22.34 GB

     Initial potential from superposition of free atoms

     starting charge  872.87859, renormalised to  873.00000
     Starting wfc are  873 randomized atomic wfcs

     total cpu time spent up to now is      273.0 secs

     Self-consistent Calculation

     iteration #  1     ecut=    42.00 Ry     beta= 0.30
     Davidson diagonalization with overlap
     ethr =  1.00E-02,  avg # of iterations =  3.6

     Threshold (ethr) on eigenvalues was too large:
     Diagonalizing with lowered threshold

     Davidson diagonalization with overlap
     ethr =  7.66E-04,  avg # of iterations =  3.8

     total cpu time spent up to now is     1353.6 secs

     total energy              =   -1714.61966169 Ry
     Harris-Foulkes estimate   =   -1715.64945680 Ry
     estimated scf accuracy    <       6.53911812 Ry

     iteration #  2     ecut=    42.00 Ry     beta= 0.30
     Davidson diagonalization with overlap
     ethr =  7.49E-04,  avg # of iterations =  3.5

     total cpu time spent up to now is     1747.6 secs

     total energy              =   -1714.09642113 Ry
     Harris-Foulkes estimate   =   -1714.82717271 Ry
     estimated scf accuracy    <       3.19509303 Ry

     iteration #  3     ecut=    42.00 Ry     beta= 0.30
     Davidson diagonalization with overlap
     ethr =  3.66E-04,  avg # of iterations =  6.9

     total cpu time spent up to now is     2384.3 secs

     total energy              =   -1713.74160376 Ry
     Harris-Foulkes estimate   =   -1714.92215413 Ry
     estimated scf accuracy    <       6.64539917 Ry

     iteration #  4     ecut=    42.00 Ry     beta= 0.30
     Davidson diagonalization with overlap
     ethr =  3.66E-04,  avg # of iterations =  5.1

     total cpu time spent up to now is     2938.8 secs

     total energy              =   -1714.26780990 Ry
     Harris-Foulkes estimate   =   -1714.34637932 Ry
     estimated scf accuracy    <       0.40219670 Ry

     iteration #  5     ecut=    42.00 Ry     beta= 0.30
     Davidson diagonalization with overlap
     ethr =  4.61E-05,  avg # of iterations =  9.8

     total cpu time spent up to now is     3623.1 secs

     total energy              =   -1714.30564459 Ry
     Harris-Foulkes estimate   =   -1714.33214810 Ry
     estimated scf accuracy    <       0.14750202 Ry

     iteration #  6     ecut=    42.00 Ry     beta= 0.30
     Davidson diagonalization with overlap
     ethr =  1.69E-05,  avg # of iterations =  8.4

     total cpu time spent up to now is     4204.9 secs

     total energy              =   -1714.31884683 Ry
     Harris-Foulkes estimate   =   -1714.32325398 Ry
     estimated scf accuracy    <       0.02703189 Ry

     iteration #  7     ecut=    42.00 Ry     beta= 0.30
     Davidson diagonalization with overlap
     ethr =  3.10E-06,  avg # of iterations = 10.6

     total cpu time spent up to now is     4910.0 secs

     total energy              =   -1714.32095120 Ry
     Harris-Foulkes estimate   =   -1714.32249396 Ry
     estimated scf accuracy    <       0.00958556 Ry

     iteration #  8     ecut=    42.00 Ry     beta= 0.30
     Davidson diagonalization with overlap
     ethr =  1.10E-06,  avg # of iterations =  5.9

     total cpu time spent up to now is     5402.2 secs

     total energy              =   -1714.32150432 Ry
     Harris-Foulkes estimate   =   -1714.32213477 Ry
     estimated scf accuracy    <       0.00319641 Ry

     iteration #  9     ecut=    42.00 Ry     beta= 0.30
     Davidson diagonalization with overlap
     ethr =  3.66E-07,  avg # of iterations =  3.5

     total cpu time spent up to now is     5851.6 secs

     total energy              =   -1714.32185505 Ry
     Harris-Foulkes estimate   =   -1714.32202035 Ry
     estimated scf accuracy    <       0.00092277 Ry

     iteration # 10     ecut=    42.00 Ry     beta= 0.30
     Davidson diagonalization with overlap
     ethr =  1.06E-07,  avg # of iterations =  3.1

     total cpu time spent up to now is     6281.0 secs

     total energy              =   -1714.32195935 Ry
     Harris-Foulkes estimate   =   -1714.32196727 Ry
     estimated scf accuracy    <       0.00008032 Ry

     iteration # 11     ecut=    42.00 Ry     beta= 0.30
     Davidson diagonalization with overlap
     ethr =  9.20E-09,  avg # of iterations =  3.6

     total cpu time spent up to now is     6788.5 secs

     total energy              =   -1714.32197230 Ry
     Harris-Foulkes estimate   =   -1714.32197766 Ry
     estimated scf accuracy    <       0.00003047 Ry

     iteration # 12     ecut=    42.00 Ry     beta= 0.30
     Davidson diagonalization with overlap
     ethr =  3.49E-09,  avg # of iterations =  3.0

     total cpu time spent up to now is     7237.9 secs

     total energy              =   -1714.32197808 Ry
     Harris-Foulkes estimate   =   -1714.32197773 Ry
     estimated scf accuracy    <       0.00000953 Ry

     iteration # 13     ecut=    42.00 Ry     beta= 0.30
     Davidson diagonalization with overlap
     ethr =  1.09E-09,  avg # of iterations =  3.4

     total cpu time spent up to now is     7669.5 secs

     total energy              =   -1714.32197989 Ry
     Harris-Foulkes estimate   =   -1714.32197923 Ry
     estimated scf accuracy    <       0.00000247 Ry

     iteration # 14     ecut=    42.00 Ry     beta= 0.30
     Davidson diagonalization with overlap
     ethr =  2.83E-10,  avg # of iterations =  3.4

     total cpu time spent up to now is     8115.7 secs

     total energy              =   -1714.32198071 Ry
     Harris-Foulkes estimate   =   -1714.32198034 Ry
     estimated scf accuracy    <       0.00000177 Ry

     iteration # 15     ecut=    42.00 Ry     beta= 0.30
     Davidson diagonalization with overlap
     ethr =  2.02E-10,  avg # of iterations =  3.0

     total cpu time spent up to now is     8532.1 secs

     total energy              =   -1714.32198108 Ry
     Harris-Foulkes estimate   =   -1714.32198091 Ry
     estimated scf accuracy    <       0.00000049 Ry

     iteration # 16     ecut=    42.00 Ry     beta= 0.30
     Davidson diagonalization with overlap
     ethr =  5.62E-11,  avg # of iterations =  3.5

     total cpu time spent up to now is     9014.0 secs

     total energy              =   -1714.32198124 Ry
     Harris-Foulkes estimate   =   -1714.32198118 Ry
     estimated scf accuracy    <       0.00000047 Ry

     iteration # 17     ecut=    42.00 Ry     beta= 0.30
     Davidson diagonalization with overlap
     ethr =  5.41E-11,  avg # of iterations =  3.2

     total cpu time spent up to now is     9419.6 secs

     total energy              =   -1714.32198130 Ry
     Harris-Foulkes estimate   =   -1714.32198129 Ry
     estimated scf accuracy    <       0.00000008 Ry

     iteration # 18     ecut=    42.00 Ry     beta= 0.30
     Davidson diagonalization with overlap
     ethr =  9.00E-12,  avg # of iterations =  3.6

     total cpu time spent up to now is     9809.0 secs

     total energy              =   -1714.32198132 Ry
     Harris-Foulkes estimate   =   -1714.32198132 Ry
     estimated scf accuracy    <       0.00000004 Ry

     iteration # 19     ecut=    42.00 Ry     beta= 0.30
     Davidson diagonalization with overlap
     ethr =  4.72E-12,  avg # of iterations =  3.6

     total cpu time spent up to now is    10184.4 secs

     total energy              =   -1714.32198133 Ry
     Harris-Foulkes estimate   =   -1714.32198133 Ry
     estimated scf accuracy    <       0.00000002 Ry

     iteration # 20     ecut=    42.00 Ry     beta= 0.30
     Davidson diagonalization with overlap
     ethr =  1.84E-12,  avg # of iterations =  3.0

     total cpu time spent up to now is    10546.9 secs

     End of self-consistent calculation

          k = 0.0000 0.0000 0.0000 (134683 PWs)   bands (ev):

    -6.0857  -5.6881  -5.4601  -5.3080  -5.2494  -5.2385  -5.2137  -5.0252
    -5.0097  -4.8945  -4.8837  -4.8315  -4.8026  -4.7709  -4.7638  -4.7560
    -4.7477  -4.7439  -4.7422  -4.4609  -4.4517  -4.4332  -4.4069  -4.3783
    -4.3506  -4.3287  -4.3236  -4.1031  -4.0233  -3.9418  -3.9250  -3.8633
    -3.8039  -3.7511  -3.6719  -3.6433  -3.6262  -3.5805  -3.5502  -3.5147
    -3.5044  -3.4722  -3.4568  -3.4490  -3.4457  -3.4376  -3.4374  -3.4287
    -3.4234  -3.4214  -3.4178  -3.4145  -3.4101  -3.4067  -3.4032  -3.4006
    -3.3883  -3.3204  -3.3082  -3.2966  -3.2871  -3.2790  -3.2713  -3.2572
    -3.2540  -3.2392  -3.2325  -3.2251  -3.2193  -3.2146  -3.2073  -3.2067
    -3.2054  -3.1993  -3.1978  -3.1945  -3.1883  -3.1854  -3.1842  -3.1803
    -3.1710  -2.6069  -2.5240  -2.5128  -2.5064  -2.4827  -2.4803  -2.4755
    -2.4652  -2.4594  -2.4507  -2.4438  -2.4379  -1.9078  -1.8811  -1.8059
    -1.6902  -1.6441  -1.6304  -1.5965  -1.5722  -1.5392  -1.5244  -1.5170
    -1.5023  -1.4995  -1.4907  -1.4836  -1.4793  -1.4714  -1.4632  -1.4589
    -1.4577  -1.4481  -1.4441  -1.4381  -1.4354  -1.4290  -1.4251  -1.4232
    -1.4226  -1.4122  -1.4095  -1.2344  -0.9995  -0.9424  -0.7067  -0.6878
    -0.6333  -0.5892  -0.5692  -0.5520  -0.5475  -0.5409  -0.5361  -0.5264
    -0.5043  -0.4914  -0.4759  -0.4543  -0.4422  -0.4132  -0.3993  -0.3883
    -0.3849  -0.3720  -0.3608  -0.3579  -0.3515  -0.3483  -0.3438  -0.3386
    -0.3376  -0.3329  -0.3324  -0.3272  -0.3250  -0.3193  -0.3089   0.3145
     0.3490   0.3862   0.4431   0.4677   0.5158   0.5328   0.5342   0.5359
     0.5559   0.5756   0.5790   0.5804   0.5850   0.5861   0.5918   0.5945
     0.5957   0.5993   0.6043   0.6057   0.6078   0.6106   0.6147   0.6317
     0.7846   0.8135   0.8185   0.8388   0.8818   0.8883   0.9042   1.0000
     1.1116   1.1504   1.1822   1.2025   1.2082   1.2183   1.2354   1.4381
     1.5197   1.5807   1.7108   1.7742   1.8125   1.8203   1.8317   1.8446
     1.8498   2.0104   2.0527   2.0874   2.0966   2.1532   2.2304   2.2920
     2.3538   2.3731   2.4404   2.4704   2.4783   2.4917   2.4948   2.5003
     2.5046   2.5074   2.5158   2.5168   2.5232   2.5290   2.5362   2.5395
     2.5555   2.5646   2.5790   2.5956   2.5983   2.6009   2.6076   2.6118
     2.6195   2.6232   2.6276   2.6288   2.6322   2.6389   2.6424   2.6480
     2.6511   2.6526   2.6558   2.6572   2.6609   2.6622   2.6675   2.6704
     2.6747   2.6775   2.6801   2.6847   2.6871   2.6891   2.6911   2.6924
     2.6985   2.7064   2.7116   2.7267   2.7427   3.0648   3.1940   3.2247
     3.2542   3.2906   3.2988   3.3243   3.3419   3.3477   3.3682   3.3765
     3.3841   3.3978   3.4034   3.4075   3.4157   3.4269   3.4361   3.4388
     3.4409   3.4512   3.4596   3.4675   3.4690   3.4747   3.4772   3.4820
     3.4832   3.4929   3.4973   3.5686   3.6137   3.6369   3.6656   3.6747
     3.6942   3.7103   3.7392   3.7507   3.7709   3.7799   3.7859   3.7939
     3.7995   3.8073   3.8124   3.8176   3.8189   3.8202   3.8277   3.8307
     3.8366   3.8432   3.8455   3.8632   3.8724   3.8797   3.8877   3.8908
     3.9011   3.9079   3.9128   3.9146   3.9225   3.9290   3.9305   3.9343
     3.9407   3.9460   3.9499   3.9522   3.9640   3.9672   3.9703   3.9719
     3.9834   3.9974   4.0237   4.0876   4.1080   4.1101   4.1131   4.1182
     4.1215   4.1227   4.1301   4.1332   4.1369   4.1461   4.1572   4.1589
     4.1683   4.1710   4.1799   4.1836   4.2066   4.3674   4.3813   4.3834
     4.3943   4.4011   4.4151   4.4174   4.4210   4.4278   4.4321   4.4399
     4.4448   4.4487   4.4645   4.4760   4.4800   4.4837   4.4917   4.4961
     4.5009   4.5051   4.5137   4.5178   4.5252   4.6913   4.9083   4.9523
     4.9586   4.9978   5.0049   5.0082   5.0247   5.0286   5.0327   5.0508
     5.0569   5.0663   5.1638   5.1758   5.1814   5.1916   5.1969   5.2044
     5.2106   5.2217   5.2243   5.2293   5.2310   5.2379   5.2417   5.2568
     5.2612   5.2758   5.4196   5.5132   5.6075   5.6266   5.6333   5.6459
     5.6587   5.6608   5.6646   5.6732   5.6786   5.6856   5.7055   5.7421
     6.0755   6.1972   6.2238   6.2359   6.4988   6.7682   6.8588   6.8780
     6.9246   6.9460   6.9587   6.9693   7.0074   7.0711   7.1474   7.2678
     7.2943   7.4334   7.5063   7.5671   7.6045   7.7023   7.7223   7.7266
     7.7686   7.7893   7.8178   7.8310   7.8399   7.8547   7.8606   7.8654
     7.8965   7.9041   7.9152   7.9180   7.9332   7.9404   7.9477   7.9664
     7.9927   8.0148   8.0373   8.0782   8.0970   8.1021   8.1352   8.1516
     8.1615   8.1740   8.1854   8.1981   8.2024   8.2089   8.2115   8.2196
     8.2225   8.2270   8.2318   8.2389   8.2440   8.2541   8.2567   8.2649
     8.2810   8.2832   8.3008   8.3432   8.4943   8.5065   8.5907   8.6194
     8.6529   8.6748   8.6937   8.7384   8.7563   8.7966   8.8076   8.8450
     8.8702   8.8759   8.8995   8.9122   8.9186   8.9229   8.9375   8.9429
     8.9477   8.9499   8.9550   8.9635

     occupation numbers 
     1.0000   1.0000   1.0000   1.0000   1.0000   1.0000   1.0000   1.0000
     1.0000   1.0000   1.0000   1.0000   1.0000   1.0000   1.0000   1.0000
     1.0000   1.0000   1.0000   1.0000   1.0000   1.0000   1.0000   1.0000
     1.0000   1.0000   1.0000   1.0000   1.0000   1.0000   1.0000   1.0000
     1.0000   1.0000   1.0000   1.0000   1.0000   1.0000   1.0000   1.0000
     1.0000   1.0000   1.0000   1.0000   1.0000   1.0000   1.0000   1.0000
     1.0000   1.0000   1.0000   1.0000   1.0000   1.0000   1.0000   1.0000
     1.0000   1.0000   1.0000   1.0000   1.0000   1.0000   1.0000   1.0000
     1.0000   1.0000   1.0000   1.0000   1.0000   1.0000   1.0000   1.0000
     1.0000   1.0000   1.0000   1.0000   1.0000   1.0000   1.0000   1.0000
     1.0000   1.0000   1.0000   1.0000   1.0000   1.0000   1.0000   1.0000
     1.0000   1.0000   1.0000   1.0000   1.0000   1.0000   1.0000   1.0000
     1.0000   1.0000   1.0000   1.0000   1.0000   1.0000   1.0000   1.0000
     1.0000   1.0000   1.0000   1.0000   1.0000   1.0000   1.0000   1.0000
     1.0000   1.0000   1.0000   1.0000   1.0000   1.0000   1.0000   1.0000
     1.0000   1.0000   1.0000   1.0000   1.0000   1.0000   1.0000   1.0000
     1.0000   1.0000   1.0000   1.0000   1.0000   1.0000   1.0000   1.0000
     1.0000   1.0000   1.0000   1.0000   1.0000   1.0000   1.0000   1.0000
     1.0000   1.0000   1.0000   1.0000   1.0000   1.0000   1.0000   1.0000
     1.0000   1.0000   1.0000   1.0000   1.0000   1.0000   1.0000   1.0000
     1.0000   1.0000   1.0000   1.0000   1.0000   1.0000   1.0000   1.0000
     1.0000   1.0000   1.0000   1.0000   1.0000   1.0000   1.0000   1.0000
     1.0000   1.0000   1.0000   1.0000   1.0000   1.0000   1.0000   1.0000
     1.0000   1.0000   1.0000   1.0000   1.0000   1.0000   1.0000   1.0000
     1.0000   1.0000   1.0000   1.0000   1.0000   1.0000   1.0000   1.0000
     1.0000   1.0000   1.0000   1.0000   1.0000   1.0000   1.0000   1.0000
     1.0000   1.0000   1.0000   1.0000   1.0000   1.0000   1.0000   1.0000
     1.0000   1.0000   1.0000   1.0000   1.0000   1.0000   1.0000   1.0000
     1.0000   1.0000   1.0000   1.0000   1.0000   1.0000   1.0000   1.0000
     1.0000   1.0000   1.0000   1.0000   1.0000   1.0000   1.0000   1.0000
     1.0000   1.0000   1.0000   1.0000   1.0000   1.0000   1.0000   1.0000
     1.0000   1.0000   1.0000   1.0000   1.0000   1.0000   1.0000   1.0000
     1.0000   1.0000   1.0000   1.0000   1.0000   1.0000   1.0000   1.0000
     1.0000   1.0000   1.0000   1.0000   1.0000   1.0000   1.0000   1.0000
     1.0000   1.0000   1.0000   1.0000   1.0000   1.0000   1.0000   1.0000
     1.0000   1.0000   1.0000   1.0000   1.0000   1.0000   1.0000   1.0000
     1.0000   1.0000   1.0000   1.0000   1.0000   1.0000   1.0000   1.0000
     1.0000   1.0000   1.0000   1.0000   1.0000   1.0000   1.0000   1.0000
     1.0000   1.0000   1.0001   1.0001   1.0001   1.0001   1.0001   1.0001
     1.0001   1.0001   1.0001   1.0001   1.0001   1.0001   1.0001   1.0001
     1.0001   1.0001   1.0001   1.0002   1.0002   1.0002   1.0002   1.0002
     1.0002   1.0002   1.0002   1.0003   1.0003   1.0003   1.0003   1.0003
     1.0003   1.0003   1.0003   1.0003   1.0004   1.0004   1.0004   1.0004
     1.0004   1.0005   1.0006   1.0009   1.0010   1.0010   1.0011   1.0011
     1.0011   1.0011   1.0012   1.0012   1.0012   1.0013   1.0014   1.0014
     1.0015   1.0015   1.0016   1.0017   1.0019   1.0051   1.0055   1.0055
     1.0059   1.0061   1.0066   1.0066   1.0068   1.0070   1.0072   1.0075
     1.0077   1.0078   1.0085   1.0090   1.0092   1.0094   1.0097   1.0100
     1.0102   1.0104   1.0109   1.0111   1.0115   1.0238   1.0496   1.0557
     1.0566   1.0620   1.0629   1.0634   1.0655   1.0661   1.0666   1.0689
     1.0696   1.0708   1.0803   1.0811   1.0814   1.0820   1.0822   1.0825
     1.0828   1.0831   1.0831   1.0832   1.0832   1.0833   1.0833   1.0832
     1.0832   1.0828   1.0633   1.0322   0.9836   0.9717   0.9673   0.9588
     0.9499   0.9484   0.9457   0.9394   0.9354   0.9302   0.9147   0.8844
     0.5390   0.4095   0.3828   0.3709   0.1632   0.0530   0.0340   0.0308
     0.0241   0.0215   0.0200   0.0189   0.0152   0.0105   0.0066   0.0030
     0.0025   0.0009   0.0005   0.0003   0.0002   0.0001   0.0001   0.0001
     0.0001   0.0000   0.0000   0.0000   0.0000   0.0000   0.0000   0.0000
     0.0000   0.0000   0.0000   0.0000   0.0000   0.0000   0.0000   0.0000
     0.0000   0.0000   0.0000   0.0000   0.0000   0.0000   0.0000   0.0000
     0.0000   0.0000   0.0000   0.0000   0.0000   0.0000   0.0000   0.0000
     0.0000   0.0000   0.0000   0.0000   0.0000   0.0000   0.0000   0.0000
     0.0000   0.0000   0.0000   0.0000   0.0000   0.0000   0.0000   0.0000
     0.0000   0.0000   0.0000   0.0000   0.0000   0.0000   0.0000   0.0000
     0.0000   0.0000   0.0000   0.0000   0.0000   0.0000   0.0000   0.0000
     0.0000   0.0000   0.0000   0.0000

          k = 0.0000 0.0000-0.5000 (134800 PWs)   bands (ev):

    -6.0739  -5.7156  -5.4689  -5.3490  -5.2284  -5.1649  -5.1251  -5.1009
    -5.0960  -5.0837  -4.8880  -4.8639  -4.7795  -4.7430  -4.7100  -4.6594
    -4.6552  -4.6509  -4.6398  -4.6344  -4.4075  -4.3820  -4.3389  -4.2717
    -4.2339  -4.1937  -4.1835  -4.1796  -4.0361  -3.9866  -3.9600  -3.9092
    -3.8918  -3.8611  -3.8353  -3.8264  -3.8188  -3.7951  -3.7844  -3.7731
    -3.7253  -3.7110  -3.7065  -3.6998  -3.5757  -3.5137  -3.4842  -3.4771
    -3.4134  -3.4061  -3.3862  -3.3791  -3.3728  -3.3681  -3.3628  -3.3582
    -3.3504  -3.3484  -3.3435  -3.3375  -3.2833  -3.2175  -3.2007  -3.1844
    -3.1612  -3.1561  -3.1359  -3.1331  -3.0569  -3.0280  -3.0037  -2.9999
    -2.9911  -2.9811  -2.9689  -2.9650  -2.9131  -2.8731  -2.7417  -2.7285
    -2.7135  -2.7082  -2.6938  -2.6844  -2.6766  -2.6706  -2.5683  -2.5313
    -2.5214  -2.5085  -2.4913  -2.4805  -2.4797  -2.4772  -2.0499  -2.0206
    -1.9957  -1.9526  -1.9479  -1.9361  -1.9320  -1.9227  -1.7082  -1.6903
    -1.6481  -1.6057  -1.5646  -1.5413  -1.5323  -1.5294  -1.4837  -1.4401
    -1.4318  -1.4208  -1.3811  -1.2038  -1.1428  -1.1291  -1.0833  -1.0368
    -1.0226  -1.0127  -1.0018  -0.9385  -0.8776  -0.7936  -0.7442  -0.6774
    -0.6544  -0.6256  -0.6217  -0.6082  -0.5941  -0.5839  -0.5795  -0.5611
    -0.5547  -0.5469  -0.4625  -0.4471  -0.4264  -0.4080  -0.4045  -0.3922
    -0.3895  -0.3880  -0.2597  -0.2381  -0.1896  -0.1579  -0.1164  -0.0717
    -0.0267  -0.0218   0.0016   0.0188   0.0337   0.0425   0.0567   0.0674
     0.1005   0.1030   0.1217   0.1364   0.1491   0.1505   0.1605   0.1713
     0.1894   0.1930   0.1939   0.2000   0.2049   0.2090   0.2154   0.2210
     0.2278   0.2335   0.2382   0.2455   0.7251   0.9193   0.9549   0.9840
     1.0110   1.0250   1.0383   1.0398   1.0529   1.0871   1.2700   1.3053
     1.3945   1.4902   1.5147   1.5321   1.5442   1.5526   1.5791   1.6084
     1.6416   1.7148   1.7769   1.8000   1.8251   1.8334   1.8486   1.8587
     1.9008   1.9227   1.9477   1.9853   1.9999   2.0249   2.0331   2.0506
     2.0575   2.0643   2.1012   2.1025   2.1320   2.1820   2.2042   2.2320
     2.2349   2.2697   2.3188   2.3229   2.3490   2.3548   2.3643   2.3802
     2.4135   2.4221   2.4385   2.4478   2.4545   2.4697   2.4849   2.5056
     2.6054   2.6337   2.6799   2.6997   2.7274   2.7788   2.8015   2.8073
     2.8831   2.8901   2.9177   2.9657   2.9876   2.9985   2.9997   3.0045
     3.0084   3.0222   3.0278   3.0286   3.0304   3.0376   3.0482   3.0509
     3.0587   3.0630   3.0639   3.0719   3.0764   3.0824   3.0843   3.0925
     3.0995   3.1076   3.1182   3.1224   3.1276   3.1338   3.1378   3.1429
     3.1579   3.1705   3.2737   3.3098   3.3275   3.3421   3.3444   3.3723
     3.3826   3.4037   3.4125   3.4181   3.4246   3.4269   3.4406   3.4494
     3.4537   3.4600   3.4617   3.4709   3.4775   3.4805   3.4885   3.4897
     3.4977   3.4996   3.5063   3.5090   3.5143   3.5410   3.5687   3.5956
     3.6038   3.6050   3.6089   3.6238   3.6380   3.6427   3.7015   3.7634
     3.7809   3.7885   3.8024   3.8239   3.8286   3.8507   3.8854   3.9445
     3.9869   3.9998   4.0065   4.0355   4.0499   4.0558   4.0614   4.0735
     4.0872   4.0921   4.0988   4.1067   4.1122   4.1158   4.1219   4.1326
     4.1419   4.1480   4.1612   4.1622   4.1745   4.1897   4.2076   4.2111
     4.2211   4.2246   4.2315   4.2345   4.2386   4.2485   4.2762   4.3081
     4.3209   4.3365   4.3519   4.3946   4.4343   4.4552   4.4669   4.4890
     4.4946   4.5139   4.5219   4.5345   4.5398   4.5484   4.5526   4.5694
     4.5721   4.5760   4.5877   4.5893   4.5936   4.5967   4.6066   4.6097
     4.6183   4.6232   4.6434   4.6458   4.6549   4.6601   4.6747   4.6792
     4.6853   4.6898   4.7843   4.7922   4.7950   4.8059   4.8204   4.8293
     4.8330   4.8540   4.8943   4.9390   4.9416   4.9625   4.9657   4.9699
     4.9723   4.9843   5.1019   5.3577   5.4258   5.4361   5.4562   5.4603
     5.4959   5.5142   5.5155   5.5258   5.5331   5.5375   5.5416   5.5431
     5.5504   5.5568   5.5638   5.5705   5.5723   5.6395   5.7001   5.7756
     5.7891   5.8132   5.8562   6.1802   6.5512   6.8529   6.9258   7.1389
     7.2865   7.3065   7.3472   7.3831   7.4489   7.4850   7.5105   7.5463
     7.5565   7.5854   7.6001   7.6091   7.6185   7.6221   7.6286   7.6350
     7.6604   7.7219   7.7283   7.7536   7.7836   7.8295   7.8640   7.8740
     7.8995   7.9038   7.9143   7.9220   7.9251   7.9672   7.9890   8.0083
     8.0817   8.0987   8.1148   8.1215   8.1945   8.2151   8.2365   8.2590
     8.2759   8.3086   8.3198   8.3299   8.3428   8.3512   8.3658   8.3896
     8.4082   8.4247   8.4278   8.4466   8.4484   8.4624   8.4641   8.4728
     8.4747   8.4939   8.4988   8.5194   8.5215   8.5281   8.5393   8.5457
     8.5513   8.5585   8.5657   8.5709   8.5787   8.5840   8.5921   8.5954
     8.6107   8.6148   8.6252   8.6271   8.6403   8.6447   8.6618   8.6794
     8.6805   8.6921   8.7059   8.7119

     occupation numbers 
     1.0000   1.0000   1.0000   1.0000   1.0000   1.0000   1.0000   1.0000
     1.0000   1.0000   1.0000   1.0000   1.0000   1.0000   1.0000   1.0000
     1.0000   1.0000   1.0000   1.0000   1.0000   1.0000   1.0000   1.0000
     1.0000   1.0000   1.0000   1.0000   1.0000   1.0000   1.0000   1.0000
     1.0000   1.0000   1.0000   1.0000   1.0000   1.0000   1.0000   1.0000
     1.0000   1.0000   1.0000   1.0000   1.0000   1.0000   1.0000   1.0000
     1.0000   1.0000   1.0000   1.0000   1.0000   1.0000   1.0000   1.0000
     1.0000   1.0000   1.0000   1.0000   1.0000   1.0000   1.0000   1.0000
     1.0000   1.0000   1.0000   1.0000   1.0000   1.0000   1.0000   1.0000
     1.0000   1.0000   1.0000   1.0000   1.0000   1.0000   1.0000   1.0000
     1.0000   1.0000   1.0000   1.0000   1.0000   1.0000   1.0000   1.0000
     1.0000   1.0000   1.0000   1.0000   1.0000   1.0000   1.0000   1.0000
     1.0000   1.0000   1.0000   1.0000   1.0000   1.0000   1.0000   1.0000
     1.0000   1.0000   1.0000   1.0000   1.0000   1.0000   1.0000   1.0000
     1.0000   1.0000   1.0000   1.0000   1.0000   1.0000   1.0000   1.0000
     1.0000   1.0000   1.0000   1.0000   1.0000   1.0000   1.0000   1.0000
     1.0000   1.0000   1.0000   1.0000   1.0000   1.0000   1.0000   1.0000
     1.0000   1.0000   1.0000   1.0000   1.0000   1.0000   1.0000   1.0000
     1.0000   1.0000   1.0000   1.0000   1.0000   1.0000   1.0000   1.0000
     1.0000   1.0000   1.0000   1.0000   1.0000   1.0000   1.0000   1.0000
     1.0000   1.0000   1.0000   1.0000   1.0000   1.0000   1.0000   1.0000
     1.0000   1.0000   1.0000   1.0000   1.0000   1.0000   1.0000   1.0000
     1.0000   1.0000   1.0000   1.0000   1.0000   1.0000   1.0000   1.0000
     1.0000   1.0000   1.0000   1.0000   1.0000   1.0000   1.0000   1.0000
     1.0000   1.0000   1.0000   1.0000   1.0000   1.0000   1.0000   1.0000
     1.0000   1.0000   1.0000   1.0000   1.0000   1.0000   1.0000   1.0000
     1.0000   1.0000   1.0000   1.0000   1.0000   1.0000   1.0000   1.0000
     1.0000   1.0000   1.0000   1.0000   1.0000   1.0000   1.0000   1.0000
     1.0000   1.0000   1.0000   1.0000   1.0000   1.0000   1.0000   1.0000
     1.0000   1.0000   1.0000   1.0000   1.0000   1.0000   1.0000   1.0000
     1.0000   1.0000   1.0000   1.0000   1.0000   1.0000   1.0000   1.0000
     1.0000   1.0000   1.0000   1.0000   1.0000   1.0000   1.0000   1.0000
     1.0000   1.0000   1.0000   1.0000   1.0000   1.0000   1.0000   1.0000
     1.0000   1.0000   1.0000   1.0000   1.0000   1.0000   1.0000   1.0000
     1.0000   1.0000   1.0000   1.0000   1.0000   1.0000   1.0000   1.0000
     1.0000   1.0000   1.0000   1.0000   1.0000   1.0000   1.0000   1.0000
     1.0000   1.0000   1.0000   1.0000   1.0000   1.0000   1.0000   1.0000
     1.0000   1.0000   1.0000   1.0000   1.0000   1.0000   1.0000   1.0000
     1.0000   1.0000   1.0000   1.0000   1.0000   1.0000   1.0000   1.0000
     1.0000   1.0000   1.0000   1.0000   1.0000   1.0000   1.0000   1.0001
     1.0001   1.0001   1.0001   1.0001   1.0001   1.0002   1.0002   1.0003
     1.0004   1.0005   1.0005   1.0006   1.0007   1.0007   1.0007   1.0008
     1.0009   1.0009   1.0010   1.0010   1.0010   1.0011   1.0011   1.0012
     1.0013   1.0013   1.0014   1.0015   1.0016   1.0017   1.0020   1.0020
     1.0021   1.0022   1.0023   1.0023   1.0024   1.0025   1.0030   1.0036
     1.0039   1.0042   1.0046   1.0059   1.0073   1.0081   1.0086   1.0096
     1.0099   1.0109   1.0113   1.0120   1.0123   1.0128   1.0131   1.0141
     1.0143   1.0146   1.0154   1.0155   1.0158   1.0160   1.0167   1.0169
     1.0176   1.0180   1.0196   1.0198   1.0205   1.0210   1.0223   1.0227
     1.0233   1.0237   1.0337   1.0346   1.0350   1.0363   1.0381   1.0392
     1.0397   1.0424   1.0477   1.0539   1.0542   1.0571   1.0576   1.0581
     1.0585   1.0601   1.0748   1.0755   1.0618   1.0590   1.0531   1.0518
     1.0392   1.0318   1.0312   1.0267   1.0234   1.0214   1.0194   1.0187
     1.0152   1.0119   1.0083   1.0048   1.0038   0.9632   0.9190   0.8548
     0.8423   0.8195   0.7768   0.4268   0.1342   0.0350   0.0240   0.0070
     0.0026   0.0023   0.0017   0.0013   0.0008   0.0006   0.0005   0.0004
     0.0004   0.0003   0.0002   0.0002   0.0002   0.0002   0.0002   0.0002
     0.0002   0.0001   0.0001   0.0001   0.0001   0.0000   0.0000   0.0000
     0.0000   0.0000   0.0000   0.0000   0.0000   0.0000   0.0000   0.0000
     0.0000   0.0000   0.0000   0.0000   0.0000   0.0000   0.0000   0.0000
     0.0000   0.0000   0.0000   0.0000   0.0000   0.0000   0.0000   0.0000
     0.0000   0.0000   0.0000   0.0000   0.0000   0.0000   0.0000   0.0000
     0.0000   0.0000   0.0000   0.0000   0.0000   0.0000   0.0000   0.0000
     0.0000   0.0000   0.0000   0.0000   0.0000   0.0000   0.0000   0.0000
     0.0000   0.0000   0.0000   0.0000   0.0000   0.0000   0.0000   0.0000
     0.0000   0.0000   0.0000   0.0000

          k = 0.0000-0.5000-0.5000 (134912 PWs)   bands (ev):

    -6.0679  -5.6784  -5.4918  -5.4698  -5.2871  -5.1812  -5.0730  -5.0560
    -5.0257  -5.0038  -4.9805  -4.9624  -4.8286  -4.7666  -4.6457  -4.5998
    -4.5429  -4.5374  -4.5254  -4.5029  -4.3718  -4.2884  -4.2699  -4.2484
    -4.1905  -4.1607  -4.1247  -4.1198  -4.1123  -4.0976  -4.0939  -4.0920
    -4.0829  -4.0770  -4.0705  -4.0645  -3.8664  -3.8404  -3.8142  -3.7335
    -3.6947  -3.6836  -3.6614  -3.6494  -3.6328  -3.6127  -3.6089  -3.5903
    -3.5487  -3.5341  -3.5062  -3.5001  -3.4640  -3.4483  -3.4377  -3.4339
    -3.2516  -3.1624  -3.1191  -3.0945  -3.0640  -3.0535  -3.0402  -3.0277
    -3.0245  -3.0096  -3.0032  -2.9963  -2.9877  -2.9828  -2.9778  -2.9734
    -2.9123  -2.8355  -2.8162  -2.7767  -2.7569  -2.7284  -2.7050  -2.7001
    -2.6211  -2.6116  -2.5907  -2.5882  -2.5533  -2.5406  -2.5306  -2.5263
    -2.5196  -2.5056  -2.4993  -2.4975  -2.4867  -2.4813  -2.4788  -2.4735
    -2.3034  -2.2535  -2.2336  -2.2294  -2.2133  -2.2102  -2.2062  -2.1973
    -1.8076  -1.7793  -1.7401  -1.7096  -1.4994  -1.3950  -1.3698  -1.3402
    -1.3196  -1.1154  -1.0732  -0.9223  -0.8266  -0.7599  -0.7564  -0.7121
    -0.6884  -0.6810  -0.6694  -0.6599  -0.6205  -0.6161  -0.5870  -0.5575
    -0.5390  -0.5299  -0.5129  -0.4996  -0.4961  -0.4904  -0.4839  -0.4790
    -0.4676  -0.4634  -0.4557  -0.4550  -0.4476  -0.4254  -0.4226  -0.4151
    -0.4018  -0.3794  -0.3690  -0.3541  -0.3384  -0.3372  -0.3215  -0.3141
    -0.3117  -0.3064  -0.2991  -0.2960  -0.2916  -0.2902  -0.2840  -0.2801
    -0.2765  -0.2710  -0.2602  -0.2522  -0.2428  -0.2422  -0.2377  -0.2274
     0.3912   0.5157   0.5597   0.5847   0.6791   0.7201   0.7266   0.7298
     0.7518   0.7605   0.7785   0.7958   0.7987   0.8196   0.8329   0.8795
     0.8943   0.9107   0.9264   0.9327   0.9426   0.9591   0.9620   0.9681
     0.9740   0.9769   0.9858   0.9949   1.1331   1.2419   1.5188   1.6022
     1.7169   1.9189   1.9868   2.0070   2.0143   2.0537   2.0685   2.0947
     2.1054   2.1119   2.1651   2.2016   2.2364   2.2573   2.2618   2.2776
     2.2842   2.2908   2.2962   2.2980   2.3015   2.3066   2.3130   2.3177
     2.3238   2.3287   2.3320   2.3426   2.3436   2.3503   2.3717   2.3857
     2.4026   2.4275   2.4496   2.4810   2.4868   2.5312   2.5484   2.5505
     2.5684   2.5791   2.5943   2.6150   2.6301   2.6424   2.6559   2.6599
     2.6667   2.6708   2.6755   2.6835   2.7275   2.7406   2.7587   2.7662
     2.7744   2.7920   2.8035   2.8093   2.9000   2.9103   2.9631   2.9883
     2.9976   3.0045   3.0387   3.0629   3.0917   3.1039   3.1224   3.1294
     3.1386   3.1451   3.1593   3.1674   3.1763   3.1865   3.1903   3.2142
     3.2258   3.2371   3.2434   3.2500   3.2612   3.2736   3.2773   3.2983
     3.3132   3.3226   3.3382   3.3507   3.4026   3.4364   3.4492   3.4731
     3.5078   3.5431   3.5498   3.5672   3.5731   3.5792   3.5876   3.6071
     3.6120   3.6271   3.6340   3.6421   3.6437   3.6535   3.6566   3.6636
     3.6716   3.6778   3.6896   3.7218   3.7277   3.7412   3.7563   3.7627
     3.7687   3.7804   3.7893   3.8000   3.8116   3.8207   3.8228   3.8241
     3.8309   3.8524   3.8672   3.8821   3.8950   3.9055   3.9173   3.9329
     3.9549   3.9646   3.9745   3.9809   3.9897   3.9953   4.0049   4.0109
     4.1315   4.1500   4.1668   4.2004   4.2143   4.2252   4.2377   4.2469
     4.2534   4.2618   4.2674   4.2696   4.2728   4.2772   4.2887   4.3028
     4.3083   4.3192   4.3205   4.3402   4.3430   4.3626   4.3803   4.3934
     4.4670   4.5150   4.5353   4.5591   4.5741   4.5970   4.6032   4.6088
     4.6231   4.6329   4.6376   4.6440   4.7231   4.7748   4.7885   4.8429
     4.8548   4.8652   4.8712   4.8778   4.8910   4.8970   4.9021   4.9124
     4.9182   4.9220   4.9302   4.9345   4.9381   4.9436   4.9510   4.9653
     4.9679   4.9753   4.9805   4.9891   5.0117   5.0180   5.0241   5.0285
     5.0348   5.0702   5.0864   5.0992   5.1108   5.1191   5.1324   5.1491
     5.1554   5.1937   5.2330   5.2562   5.2757   5.2910   5.2984   5.3027
     5.3437   5.3574   5.3634   5.3903   5.4343   5.6206   5.7185   6.0530
     6.0708   6.1264   6.1315   6.2153   6.6786   6.9556   7.1275   7.1480
     7.2408   7.2989   7.3648   7.4065   7.4160   7.4362   7.4651   7.5054
     7.5181   7.5464   7.5672   7.6182   7.6249   7.6498   7.6717   7.6977
     7.7091   7.7261   7.8120   7.8178   7.8709   7.9175   7.9237   7.9306
     7.9511   7.9638   7.9789   7.9892   7.9999   8.0109   8.0161   8.0215
     8.0309   8.0447   8.0605   8.0670   8.0707   8.0813   8.0910   8.0978
     8.1015   8.1040   8.1081   8.1113   8.1214   8.1289   8.1710   8.1985
     8.2514   8.2602   8.2757   8.2918   8.3292   8.3532   8.3729   8.4230
     8.4347   8.4776   8.4925   8.5243   8.5324   8.5940   8.6063   8.6161
     8.6361   8.6434   8.6445   8.6600   8.6691   8.6791   8.6900   8.6976
     8.7077   8.7193   8.7328   8.7628   8.7835   8.7859   8.7917   8.7986
     8.8035   8.8107   8.8230   8.8284

     occupation numbers 
     1.0000   1.0000   1.0000   1.0000   1.0000   1.0000   1.0000   1.0000
     1.0000   1.0000   1.0000   1.0000   1.0000   1.0000   1.0000   1.0000
     1.0000   1.0000   1.0000   1.0000   1.0000   1.0000   1.0000   1.0000
     1.0000   1.0000   1.0000   1.0000   1.0000   1.0000   1.0000   1.0000
     1.0000   1.0000   1.0000   1.0000   1.0000   1.0000   1.0000   1.0000
     1.0000   1.0000   1.0000   1.0000   1.0000   1.0000   1.0000   1.0000
     1.0000   1.0000   1.0000   1.0000   1.0000   1.0000   1.0000   1.0000
     1.0000   1.0000   1.0000   1.0000   1.0000   1.0000   1.0000   1.0000
     1.0000   1.0000   1.0000   1.0000   1.0000   1.0000   1.0000   1.0000
     1.0000   1.0000   1.0000   1.0000   1.0000   1.0000   1.0000   1.0000
     1.0000   1.0000   1.0000   1.0000   1.0000   1.0000   1.0000   1.0000
     1.0000   1.0000   1.0000   1.0000   1.0000   1.0000   1.0000   1.0000
     1.0000   1.0000   1.0000   1.0000   1.0000   1.0000   1.0000   1.0000
     1.0000   1.0000   1.0000   1.0000   1.0000   1.0000   1.0000   1.0000
     1.0000   1.0000   1.0000   1.0000   1.0000   1.0000   1.0000   1.0000
     1.0000   1.0000   1.0000   1.0000   1.0000   1.0000   1.0000   1.0000
     1.0000   1.0000   1.0000   1.0000   1.0000   1.0000   1.0000   1.0000
     1.0000   1.0000   1.0000   1.0000   1.0000   1.0000   1.0000   1.0000
     1.0000   1.0000   1.0000   1.0000   1.0000   1.0000   1.0000   1.0000
     1.0000   1.0000   1.0000   1.0000   1.0000   1.0000   1.0000   1.0000
     1.0000   1.0000   1.0000   1.0000   1.0000   1.0000   1.0000   1.0000
     1.0000   1.0000   1.0000   1.0000   1.0000   1.0000   1.0000   1.0000
     1.0000   1.0000   1.0000   1.0000   1.0000   1.0000   1.0000   1.0000
     1.0000   1.0000   1.0000   1.0000   1.0000   1.0000   1.0000   1.0000
     1.0000   1.0000   1.0000   1.0000   1.0000   1.0000   1.0000   1.0000
     1.0000   1.0000   1.0000   1.0000   1.0000   1.0000   1.0000   1.0000
     1.0000   1.0000   1.0000   1.0000   1.0000   1.0000   1.0000   1.0000
     1.0000   1.0000   1.0000   1.0000   1.0000   1.0000   1.0000   1.0000
     1.0000   1.0000   1.0000   1.0000   1.0000   1.0000   1.0000   1.0000
     1.0000   1.0000   1.0000   1.0000   1.0000   1.0000   1.0000   1.0000
     1.0000   1.0000   1.0000   1.0000   1.0000   1.0000   1.0000   1.0000
     1.0000   1.0000   1.0000   1.0000   1.0000   1.0000   1.0000   1.0000
     1.0000   1.0000   1.0000   1.0000   1.0000   1.0000   1.0000   1.0000
     1.0000   1.0000   1.0000   1.0000   1.0000   1.0000   1.0000   1.0000
     1.0000   1.0000   1.0000   1.0000   1.0000   1.0000   1.0000   1.0000
     1.0000   1.0000   1.0000   1.0000   1.0000   1.0000   1.0000   1.0000
     1.0000   1.0000   1.0000   1.0000   1.0000   1.0000   1.0000   1.0000
     1.0000   1.0000   1.0000   1.0000   1.0000   1.0000   1.0000   1.0000
     1.0000   1.0000   1.0000   1.0000   1.0000   1.0000   1.0000   1.0000
     1.0000   1.0000   1.0000   1.0001   1.0001   1.0001   1.0001   1.0001
     1.0001   1.0001   1.0001   1.0001   1.0001   1.0001   1.0001   1.0001
     1.0001   1.0002   1.0002   1.0002   1.0002   1.0002   1.0003   1.0003
     1.0003   1.0004   1.0004   1.0004   1.0004   1.0005   1.0005   1.0005
     1.0012   1.0013   1.0015   1.0019   1.0020   1.0022   1.0024   1.0025
     1.0026   1.0027   1.0028   1.0029   1.0029   1.0030   1.0032   1.0035
     1.0036   1.0038   1.0039   1.0043   1.0044   1.0049   1.0054   1.0058
     1.0086   1.0109   1.0120   1.0135   1.0144   1.0160   1.0165   1.0169
     1.0180   1.0187   1.0191   1.0196   1.0270   1.0326   1.0342   1.0409
     1.0425   1.0438   1.0446   1.0455   1.0473   1.0481   1.0488   1.0502
     1.0510   1.0515   1.0527   1.0532   1.0537   1.0545   1.0555   1.0575
     1.0579   1.0589   1.0596   1.0608   1.0638   1.0647   1.0655   1.0660
     1.0669   1.0713   1.0731   1.0745   1.0757   1.0766   1.0778   1.0792
     1.0797   1.0821   1.0833   1.0832   1.0828   1.0821   1.0816   1.0814
     1.0774   1.0755   1.0746   1.0699   1.0595   0.9755   0.9042   0.5637
     0.5441   0.4836   0.4781   0.3913   0.0796   0.0204   0.0075   0.0066
     0.0036   0.0024   0.0015   0.0011   0.0010   0.0009   0.0007   0.0005
     0.0005   0.0004   0.0003   0.0002   0.0002   0.0002   0.0001   0.0001
     0.0001   0.0001   0.0000   0.0000   0.0000   0.0000   0.0000   0.0000
     0.0000   0.0000   0.0000   0.0000   0.0000   0.0000   0.0000   0.0000
     0.0000   0.0000   0.0000   0.0000   0.0000   0.0000   0.0000   0.0000
     0.0000   0.0000   0.0000   0.0000   0.0000   0.0000   0.0000   0.0000
     0.0000   0.0000   0.0000   0.0000   0.0000   0.0000   0.0000   0.0000
     0.0000   0.0000   0.0000   0.0000   0.0000   0.0000   0.0000   0.0000
     0.0000   0.0000   0.0000   0.0000   0.0000   0.0000   0.0000   0.0000
     0.0000   0.0000   0.0000   0.0000   0.0000   0.0000   0.0000   0.0000
     0.0000   0.0000   0.0000   0.0000

          k =-0.5000-0.5000-0.5000 (134688 PWs)   bands (ev):

    -6.0640  -5.6556  -5.4157  -5.3704  -5.3621  -5.3439  -5.3257  -5.3053
    -4.9926  -4.8937  -4.6681  -4.6336  -4.5879  -4.5520  -4.4711  -4.4679
    -4.4561  -4.4415  -4.4293  -4.4247  -4.4144  -4.4072  -4.4022  -4.3968
    -4.3929  -4.3898  -4.3849  -4.3790  -4.3706  -4.3674  -4.3663  -4.3555
    -3.9846  -3.8754  -3.8518  -3.7745  -3.7524  -3.7257  -3.6729  -3.6620
    -3.6427  -3.6298  -3.6285  -3.6214  -3.6167  -3.6052  -3.6032  -3.5928
    -3.5886  -3.5855  -3.5851  -3.5763  -3.5729  -3.5715  -3.5670  -3.5631
    -3.4074  -3.3892  -3.3781  -3.3739  -3.0556  -2.9995  -2.9578  -2.8621
    -2.7594  -2.7532  -2.7389  -2.7355  -2.6946  -2.6804  -2.6731  -2.6722
    -2.6585  -2.6541  -2.6417  -2.6401  -2.6356  -2.6293  -2.6275  -2.6179
    -2.6158  -2.6119  -2.6072  -2.6003  -2.5480  -2.5132  -2.5057  -2.4932
    -2.4856  -2.4784  -2.4757  -2.4676  -2.4621  -2.4580  -2.4557  -2.4491
    -2.4419  -2.4307  -2.4260  -2.4212  -2.4202  -2.4175  -2.4149  -2.4128
    -2.4101  -2.4063  -2.4059  -2.4034  -1.5240  -1.2721  -1.1817  -1.0051
    -0.9238  -0.7920  -0.7708  -0.7181  -0.7078  -0.6856  -0.6734  -0.6628
    -0.6480  -0.6412  -0.6395  -0.6289  -0.6147  -0.6120  -0.6050  -0.5977
    -0.5952  -0.5889  -0.5845  -0.5827  -0.5718  -0.5672  -0.5596  -0.5545
    -0.4910  -0.4455  -0.4212  -0.4163  -0.4059  -0.3767  -0.3722  -0.3649
    -0.3544  -0.3431  -0.3323  -0.3260  -0.3211  -0.3171  -0.3145  -0.3096
    -0.3092  -0.3077  -0.2997  -0.2920  -0.2856  -0.2833  -0.2821  -0.2761
    -0.1281  -0.0424  -0.0088   0.0799   0.1241   0.1358   0.1672   0.1850
     0.1912   0.2013   0.2173   0.2199   0.2215   0.2337   0.2370   0.2445
     0.2486   0.2500   0.2555   0.2558   0.2661   0.2670   0.2726   0.2767
[...]
     atom   30 type  1   force =     0.00000550    0.00000258    0.00000148
     atom   31 type  1   force =     0.00000471    0.00000479    0.00000127
     atom   32 type  1   force =     0.00000063    0.00000245    0.00000305
     atom   33 type  1   force =     0.00000383   -0.00000059    0.00000324
     atom   34 type  1   force =     0.00000085    0.00000413    0.00000083
     atom   35 type  1   force =     0.00000321    0.00000549    0.00000146
     atom   36 type  1   force =     0.00000490    0.00000218    0.00000298
     atom   37 type  1   force =     0.00000372   -0.00000008    0.00000126
     atom   38 type  1   force =     0.00000104    0.00000643   -0.00000056
     atom   39 type  1   force =     0.00000151    0.00000734   -0.00000037
     atom   40 type  1   force =     0.00000189    0.00000330   -0.00000103
     atom   41 type  1   force =     0.00000301    0.00000103   -0.00000190
     atom   42 type  1   force =     0.00000172    0.00000493   -0.00000233
     atom   43 type  1   force =     0.00000306    0.00000378   -0.00000324
     atom   44 type  1   force =     0.00000475    0.00000323   -0.00000338
     atom   45 type  1   force =     0.00000619    0.00000092   -0.00000274
     atom   46 type  1   force =     0.00000505    0.00000310   -0.00000077
     atom   47 type  1   force =     0.00000628    0.00000442    0.00000040
     atom   48 type  1   force =     0.00000222    0.00000034   -0.00000300
     atom   49 type  1   force =     0.00000615   -0.00000162   -0.00000125
     atom   50 type  1   force =    -0.00000016   -0.00000015    0.00000083
     atom   51 type  1   force =     0.00000512   -0.00000254    0.00000298
     atom   52 type  1   force =     0.00000599   -0.00000301    0.00000127
     atom   53 type  1   force =     0.00000588   -0.00000274    0.00000056
     atom   54 type  1   force =     0.00000531   -0.00000321    0.00000150
     atom   55 type  1   force =     0.00000615   -0.00000523    0.00000139
     atom   56 type  1   force =     0.00000078   -0.00000268    0.00000125
     atom   57 type  1   force =     0.00000262   -0.00000238    0.00000099
     atom   58 type  1   force =     0.00000024   -0.00000308    0.00000336
     atom   59 type  1   force =     0.00000323   -0.00000486    0.00000225
     atom   60 type  1   force =     0.00000436   -0.00000529    0.00000253
     atom   61 type  1   force =     0.00000108   -0.00000634   -0.00000037
     atom   62 type  1   force =     0.00000400   -0.00000283   -0.00000003
     atom   63 type  1   force =     0.00000368   -0.00000581   -0.00000081
     atom   64 type  1   force =     0.00000191   -0.00000542   -0.00000052
     atom   65 type  1   force =     0.00000258   -0.00000377   -0.00000228
     atom   66 type  1   force =     0.00000168   -0.00000337   -0.00000529
     atom   67 type  1   force =     0.00000441   -0.00000245   -0.00000443
     atom   68 type  1   force =     0.00000412   -0.00000606   -0.00000212
     atom   69 type  1   force =     0.00000420   -0.00000399   -0.00000167
     atom   70 type  1   force =     0.00000744   -0.00000289   -0.00000272
     atom   71 type  1   force =     0.00000828   -0.00000444    0.00000045
     atom   72 type  1   force =    -0.00000026   -0.00000226   -0.00000349
     atom   73 type  1   force =     0.00000452   -0.00000065   -0.00000086
     atom   74 type  1   force =     0.00000421   -0.00000182    0.00000188
     atom   75 type  1   force =     0.00000178   -0.00000037   -0.00000042
     atom   76 type  1   force =     0.00000022    0.00000206    0.00000258
     atom   77 type  1   force =    -0.00000243    0.00000383    0.00000012
     atom   78 type  1   force =    -0.00000001   -0.00000275   -0.00000239
     atom   79 type  1   force =    -0.00000199   -0.00000040   -0.00000414
     atom   80 type  1   force =     0.00000315    0.00000263   -0.00000116
     atom   81 type  1   force =     0.00000090    0.00000509   -0.00000384
     atom   82 type  1   force =     0.00000143   -0.00000277   -0.00000235
     atom   83 type  1   force =    -0.00000115   -0.00000157   -0.00000408
     atom   84 type  1   force =    -0.00000088    0.00000264   -0.00000547
     atom   85 type  1   force =    -0.00000115    0.00000700   -0.00000471
     atom   86 type  1   force =    -0.00000032   -0.00000651   -0.00000080
     atom   87 type  1   force =    -0.00000005   -0.00000453    0.00000049
     atom   88 type  1   force =    -0.00000147    0.00000248   -0.00000107
     atom   89 type  1   force =    -0.00000248    0.00000732   -0.00000014
     atom   90 type  1   force =    -0.00000100   -0.00000579    0.00000069
     atom   91 type  1   force =     0.00000021   -0.00000148    0.00000314
     atom   92 type  1   force =    -0.00000072    0.00000265    0.00000322
     atom   93 type  1   force =    -0.00000195    0.00000582    0.00000495
     atom   94 type  1   force =     0.00000045   -0.00000425    0.00000302
     atom   95 type  1   force =    -0.00000188   -0.00000045    0.00000390
     atom   96 type  1   force =     0.00000073    0.00000231    0.00000348
     atom   97 type  1   force =     0.00000153    0.00000498    0.00000341
     atom   98 type  1   force =     0.00000494    0.00000486    0.00000126
     atom   99 type  1   force =     0.00000236    0.00000517    0.00000114
     atom  100 type  1   force =    -0.00000086    0.00000327    0.00000100
     atom  101 type  1   force =    -0.00000371    0.00000034    0.00000024
     atom  102 type  1   force =    -0.00000050    0.00000596   -0.00000158
     atom  103 type  1   force =    -0.00000259    0.00000640   -0.00000179
     atom  104 type  1   force =     0.00000625    0.00000239    0.00000074
     atom  105 type  1   force =     0.00000267    0.00000026    0.00000016
     atom  106 type  1   force =     0.00000143    0.00000745   -0.00000348
     atom  107 type  1   force =     0.00000139    0.00000902   -0.00000134
     atom  108 type  1   force =    -0.00000075    0.00000532   -0.00000135
     atom  109 type  1   force =    -0.00000277    0.00000191   -0.00000054
     atom  110 type  1   force =    -0.00000092    0.00001075   -0.00000230
     atom  111 type  1   force =    -0.00000230    0.00001030   -0.00000046
     atom  112 type  1   force =     0.00000274    0.00000598   -0.00000051
     atom  113 type  1   force =     0.00000160    0.00000193   -0.00000027
     atom  114 type  1   force =     0.00000023    0.00000795    0.00000055
     atom  115 type  1   force =     0.00000015    0.00000878    0.00000209
     atom  116 type  1   force =    -0.00000081    0.00000762    0.00000012
     atom  117 type  1   force =    -0.00000465    0.00000177   -0.00000111
     atom  118 type  1   force =    -0.00000051    0.00000672    0.00000330
     atom  119 type  1   force =    -0.00000309    0.00000605    0.00000225
     atom  120 type  1   force =     0.00000552    0.00000327   -0.00000026
     atom  121 type  1   force =     0.00000341    0.00000044    0.00000040
     atom  122 type  1   force =     0.00000608   -0.00000258    0.00000026
     atom  123 type  1   force =     0.00000370   -0.00000514    0.00000059
     atom  124 type  1   force =    -0.00000007   -0.00000619    0.00000137
     atom  125 type  1   force =    -0.00000278   -0.00000430    0.00000019
     atom  126 type  1   force =    -0.00000098   -0.00000300    0.00000035
     atom  127 type  1   force =    -0.00000318   -0.00000577   -0.00000055
     atom  128 type  1   force =     0.00000456   -0.00000552   -0.00000011
     atom  129 type  1   force =     0.00000168   -0.00000574   -0.00000239
     atom  130 type  1   force =     0.00000447   -0.00000270    0.00000036
     atom  131 type  1   force =     0.00000105   -0.00000784   -0.00000086
     atom  132 type  1   force =    -0.00000043   -0.00000829   -0.00000155
     atom  133 type  1   force =    -0.00000141   -0.00000801   -0.00000161
     atom  134 type  1   force =    -0.00000064   -0.00000387   -0.00000000
     atom  135 type  1   force =    -0.00000248   -0.00000765   -0.00000036
     atom  136 type  1   force =     0.00000155   -0.00000859    0.00000074
     atom  137 type  1   force =    -0.00000009   -0.00000864    0.00000076
     atom  138 type  1   force =     0.00000365   -0.00000341   -0.00000168
     atom  139 type  1   force =     0.00000211   -0.00000613   -0.00000011
     atom  140 type  1   force =    -0.00000046   -0.00000882    0.00000050
     atom  141 type  1   force =    -0.00000219   -0.00000678    0.00000169
     atom  142 type  1   force =    -0.00000089   -0.00000337    0.00000016
     atom  143 type  1   force =    -0.00000321   -0.00000530    0.00000120
     atom  144 type  1   force =     0.00000500   -0.00000627   -0.00000005
     atom  145 type  1   force =     0.00000201   -0.00000505    0.00000213
     atom  146 type  1   force =    -0.00000421   -0.00000195    0.00000151
     atom  147 type  1   force =    -0.00000542    0.00000105    0.00000053
     atom  148 type  1   force =    -0.00000369    0.00000104    0.00000078
     atom  149 type  1   force =    -0.00000273    0.00000219    0.00000155
     atom  150 type  1   force =    -0.00000329   -0.00000146   -0.00000105
     atom  151 type  1   force =    -0.00000179    0.00000085    0.00000037
     atom  152 type  1   force =    -0.00000317    0.00000177   -0.00000309
     atom  153 type  1   force =    -0.00000352    0.00000439   -0.00000235
     atom  154 type  1   force =    -0.00000217   -0.00000408   -0.00000346
     atom  155 type  1   force =    -0.00000085   -0.00000129   -0.00000177
     atom  156 type  1   force =    -0.00000054    0.00000193   -0.00000218
     atom  157 type  1   force =     0.00000100    0.00000444   -0.00000111
     atom  158 type  1   force =    -0.00000007   -0.00000365   -0.00000076
     atom  159 type  1   force =     0.00000147   -0.00000048   -0.00000037
     atom  160 type  1   force =     0.00000045    0.00000203   -0.00000225
     atom  161 type  1   force =     0.00000019    0.00000530   -0.00000053
     atom  162 type  1   force =    -0.00000301   -0.00000524    0.00000082
     atom  163 type  1   force =    -0.00000160   -0.00000087    0.00000259
     atom  164 type  1   force =     0.00000068    0.00000134    0.00000035
     atom  165 type  1   force =     0.00000017    0.00000187   -0.00000056
     atom  166 type  1   force =    -0.00000323   -0.00000214    0.00000192
     atom  167 type  1   force =    -0.00000201    0.00000153    0.00000152
     atom  168 type  1   force =    -0.00000323    0.00000174    0.00000365
     atom  169 type  1   force =    -0.00000454    0.00000264    0.00000334
     atom  170 type  1   force =    -0.00000489    0.00000474    0.00000210
     atom  171 type  1   force =    -0.00000660    0.00000396    0.00000038
     atom  172 type  1   force =    -0.00000643    0.00000125    0.00000337
     atom  173 type  1   force =    -0.00000535   -0.00000067    0.00000313
     atom  174 type  1   force =    -0.00000378    0.00000325    0.00000079
     atom  175 type  1   force =    -0.00000185    0.00000350    0.00000131
     atom  176 type  1   force =    -0.00000583    0.00000307    0.00000111
     atom  177 type  1   force =    -0.00000685    0.00000054    0.00000075
     atom  178 type  1   force =    -0.00000326    0.00000728   -0.00000368
     atom  179 type  1   force =    -0.00000246    0.00000753   -0.00000213
     atom  180 type  1   force =    -0.00000362    0.00000293    0.00000183
     atom  181 type  1   force =    -0.00000137    0.00000030    0.00000098
     atom  182 type  1   force =     0.00000024    0.00000650   -0.00000106
     atom  183 type  1   force =     0.00000039    0.00000492   -0.00000187
     atom  184 type  1   force =    -0.00000382    0.00000722   -0.00000062
     atom  185 type  1   force =    -0.00000595    0.00000216   -0.00000303
     atom  186 type  1   force =    -0.00000207    0.00000858    0.00000095
     atom  187 type  1   force =    -0.00000480    0.00000504    0.00000004
     atom  188 type  1   force =    -0.00000241    0.00000377   -0.00000193
     atom  189 type  1   force =    -0.00000287   -0.00000033   -0.00000505
     atom  190 type  1   force =    -0.00000331    0.00000441    0.00000077
     atom  191 type  1   force =    -0.00000317    0.00000108    0.00000040
     atom  192 type  1   force =    -0.00000609    0.00000429    0.00000191
     atom  193 type  1   force =    -0.00000904    0.00000098   -0.00000034
     atom  194 type  1   force =    -0.00000754   -0.00000259    0.00000094
     atom  195 type  1   force =    -0.00000687   -0.00000327    0.00000127
     atom  196 type  1   force =    -0.00000575   -0.00000224    0.00000110
     atom  197 type  1   force =    -0.00000392   -0.00000181    0.00000070
     atom  198 type  1   force =    -0.00000620   -0.00000313    0.00000117
     atom  199 type  1   force =    -0.00000234   -0.00000475    0.00000352
     atom  200 type  1   force =    -0.00000493   -0.00000567   -0.00000106
     atom  201 type  1   force =    -0.00000462   -0.00000425   -0.00000062
     atom  202 type  1   force =    -0.00000471   -0.00000345    0.00000057
     atom  203 type  1   force =    -0.00000494   -0.00000612    0.00000063
     atom  204 type  1   force =    -0.00000403   -0.00000552    0.00000130
     atom  205 type  1   force =    -0.00000042   -0.00000370    0.00000099
     atom  206 type  1   force =    -0.00000359   -0.00000287   -0.00000070
     atom  207 type  1   force =    -0.00000173   -0.00000490   -0.00000321
     atom  208 type  1   force =    -0.00000260   -0.00000891   -0.00000014
     atom  209 type  1   force =    -0.00000174   -0.00000739   -0.00000048
     atom  210 type  1   force =    -0.00000624   -0.00000323   -0.00000207
     atom  211 type  1   force =    -0.00000644   -0.00000582   -0.00000075
     atom  212 type  1   force =    -0.00000296   -0.00000482   -0.00000276
     atom  213 type  1   force =    -0.00000069   -0.00000320   -0.00000096
     atom  214 type  1   force =    -0.00000750   -0.00000246   -0.00000128
     atom  215 type  1   force =    -0.00000375   -0.00000351    0.00000192
     atom  216 type  1   force =    -0.00000505   -0.00000541    0.00000119
     atom  217 type  1   force =    -0.00000412   -0.00000392    0.00000217
     atom  218 type  2   force =    -0.00000161   -0.00000051    0.00000086
     atom  219 type  2   force =    -0.00000130   -0.00000107   -0.00000150
     atom  220 type  2   force =    -0.00000065    0.00000116    0.00000080
     atom  221 type  2   force =     0.00000085   -0.00000041    0.00000036
     atom  222 type  2   force =     0.00000165   -0.00000058    0.00000186

     Total force =     0.070086     Total SCF correction =     0.000087


     Computing stress (Cartesian axis) and pressure

          total   stress  (Ry/bohr**3)                   (kbar)     P=   14.93
   0.00009386  -0.00000458  -0.00000211         13.81     -0.67     -0.31
  -0.00000458   0.00010422   0.00001829         -0.67     15.33      2.69
  -0.00000211   0.00001829   0.00010630         -0.31      2.69     15.64

     kinetic stress (kbar)   2292.93      0.59      0.98
                                0.59   2294.24      1.22
                                0.98      1.22   2294.28

     local   stress (kbar)  -1210.68      1.17      2.68
                                1.17  -1216.90    -11.32
                                2.68    -11.32  -1216.96

     nonloc. stress (kbar)   2599.39      1.50      0.58
                                1.50   2597.48     -0.05
                                0.58     -0.05   2597.54

     hartree stress (kbar)    199.34     -1.11     -0.88
                               -1.11    204.68      3.82
                               -0.88      3.82    204.29

     exc-cor stress (kbar)   -811.22     -0.05     -0.01
                               -0.05   -811.22      0.02
                               -0.01      0.02   -811.22

     corecor stress (kbar)      0.00      0.00      0.00
                                0.00      0.00      0.00
                                0.00      0.00      0.00

     ewald   stress (kbar)  -3055.94     -2.78     -3.65
                               -2.78  -3052.95      9.01
                               -3.65      9.01  -3052.30

     hubbard stress (kbar)      0.00      0.00      0.00
                                0.00      0.00      0.00
                                0.00      0.00      0.00

     london  stress (kbar)      0.00      0.00      0.00
                                0.00      0.00      0.00
                                0.00      0.00      0.00

     DFT-D3  stress (kbar)      0.00      0.00      0.00
                                0.00      0.00      0.00
                                0.00      0.00      0.00

     XDM     stress (kbar)      0.00      0.00      0.00
                                0.00      0.00      0.00
                                0.00      0.00      0.00

     dft-nl  stress (kbar)      0.00      0.00      0.00
                                0.00      0.00      0.00
                                0.00      0.00      0.00

     TS-vdW  stress (kbar)      0.00      0.00      0.00
                                0.00      0.00      0.00
                                0.00      0.00      0.00



     Writing output data file interstitial_optimize3.save

     init_run     :    262.10s CPU    269.66s WALL (       1 calls)
     electrons    :   9936.46s CPU  10274.16s WALL (       1 calls)
     forces       :     81.26s CPU     81.85s WALL (       1 calls)
     stress       :    756.35s CPU    759.66s WALL (       1 calls)

     Called by init_run:
     wfcinit      :    258.65s CPU    266.13s WALL (       1 calls)
     wfcinit:atom :      0.87s CPU      1.67s WALL (       8 calls)
     wfcinit:wfcr :    246.65s CPU    252.37s WALL (       8 calls)
     potinit      :      0.46s CPU      0.49s WALL (       1 calls)

     Called by electrons:
     c_bands      :   9242.37s CPU   9550.09s WALL (      21 calls)
     sum_band     :    687.51s CPU    711.19s WALL (      21 calls)
     v_of_rho     :      5.44s CPU      5.63s WALL (      21 calls)
     v_h          :      0.35s CPU      0.37s WALL (      21 calls)
     v_xc         :      5.09s CPU      5.26s WALL (      21 calls)
     mix_rho      :      1.19s CPU      1.40s WALL (      21 calls)

     Called by c_bands:
     init_us_2    :     31.96s CPU     33.94s WALL (     360 calls)
     cegterg      :   9176.74s CPU   9428.55s WALL (     168 calls)

     Called by sum_band:

     Called by *egterg:
     h_psi        :   5034.52s CPU   5146.05s WALL (     956 calls)
     g_psi        :     13.34s CPU     13.37s WALL (     780 calls)
     cdiaghg      :   1569.23s CPU   1572.07s WALL (     940 calls)
     cegterg:over :   1137.43s CPU   1146.50s WALL (     780 calls)
     cegterg:upda :    745.69s CPU    752.47s WALL (     780 calls)
     cegterg:last :    426.38s CPU    430.26s WALL (     168 calls)

     Called by h_psi:
     h_psi:pot    :   5009.30s CPU   5117.93s WALL (     956 calls)
     h_psi:calbec :    960.03s CPU    969.07s WALL (     956 calls)
     vloc_psi     :   3101.00s CPU   3198.18s WALL (     956 calls)
     add_vuspsi   :    948.26s CPU    950.68s WALL (     956 calls)

     General routines
     calbec       :   1047.21s CPU   1056.55s WALL (     996 calls)
     fft          :      3.12s CPU      3.34s WALL (     240 calls)
     fftw         :   3318.48s CPU   3432.07s WALL (  514098 calls)

     Parallel routines
     fft_scatt_xy :    481.42s CPU    483.50s WALL (  514338 calls)
     fft_scatt_yz :    526.45s CPU    624.14s WALL (  514338 calls)

     PWSCF        :     3h 3m CPU        3h 9m WALL


   This run was terminated on:  12: 3:42   7Nov2020            

=------------------------------------------------------------------------------=
   JOB DONE.
=------------------------------------------------------------------------------=
