
     Program PWSCF v.6.2 (svn rev. 14038) starts on  7Nov2020 at  8:50:27 

     This program is part of the open-source Quantum ESPRESSO suite
     for quantum simulation of materials; please cite
         "P. Giannozzi et al., J. Phys.:Condens. Matter 21 395502 (2009);
         "P. Giannozzi et al., J. Phys.:Condens. Matter 29 465901 (2017);
          URL http://www.quantum-espresso.org", 
     in publications or presentations arising from this work. More details at
     http://www.quantum-espresso.org/quote

     Parallel version (MPI), running on     8 processors

     MPI processes distributed on     1 nodes
     R & G space division:  proc/nbgrp/npool/nimage =       8
     Waiting for input...
     Reading input from standard input
Warning: card &IONS ignored
Warning: card / ignored

     Current dimensions of program PWSCF are:
     Max number of different atomic species (ntypx) = 10
     Max number of k-points (npk) =  40000
     Max angular momentum in pseudopotentials (lmaxx) =  3

     Subspace diagonalization in iterative solution of the eigenvalue problem:
     a serial algorithm will be used


     Parallelization info
     --------------------
     sticks:   dense  smooth     PW     G-vecs:    dense   smooth      PW
     Min        1589    1589    419               134811   134811   18265
     Max        1590    1590    420               134814   134814   18266
     Sum       12717   12717   3357              1078507  1078507  146125



     bravais-lattice index     =            0
     lattice parameter (alat)  =      30.8403  a.u.
     unit-cell volume          =   29332.9180 (a.u.)^3
     number of atoms/cell      =          224
     number of atomic types    =            2
     number of electrons       =       875.00
     number of Kohn-Sham states=          526
     kinetic-energy cutoff     =      42.0000  Ry
     charge density cutoff     =     168.0000  Ry
     convergence threshold     =      1.0E-08
     mixing beta               =       0.3000
     number of iterations used =            8  plain     mixing
     Exchange-correlation      = SLA-PW-PBX-PBC ( 1  4  3  4 0 0)

     celldm(1)=  30.840288  celldm(2)=   0.000000  celldm(3)=   0.000000
     celldm(4)=   0.000000  celldm(5)=   0.000000  celldm(6)=   0.000000

     crystal axes: (cart. coord. in units of alat)
               a(1) = (   1.000000   0.000000   0.000000 )  
               a(2) = (   0.000000   1.000000   0.000000 )  
               a(3) = (   0.000000   0.000000   1.000000 )  

     reciprocal axes: (cart. coord. in units 2 pi/alat)
               b(1) = (  1.000000  0.000000  0.000000 )  
               b(2) = (  0.000000  1.000000  0.000000 )  
               b(3) = (  0.000000  0.000000  1.000000 )  


     PseudoPot. # 1 for Si read from file:
     ./Si.pbe-hgh.UPF
     MD5 check sum: 9a9f0f6e09139bfdb36b03ff6bc35900
     Pseudo is Norm-conserving, Zval =  4.0
     Generated in analytical, separable form
     Using radial grid of 1141 points,  3 beta functions with: 
                l(1) =   0
                l(2) =   0
                l(3) =   1

     PseudoPot. # 2 for H  read from file:
     ./H.pbe-hgh.UPF
     MD5 check sum: 5f350582108a937bec95f27f5610ab08
     Pseudo is Norm-conserving, Zval =  1.0
     Generated in analytical, separable form
     Using radial grid of  929 points,  0 beta functions with: 

     atomic species   valence    mass     pseudopotential
        Si             4.00    28.08000     Si( 1.00)
        H              1.00     1.00784     H ( 1.00)

     No symmetry found


                                    s                        frac. trans.

      isym =  1     identity                                     

 cryst.   s( 1) = (     1          0          0      )
                  (     0          1          0      )
                  (     0          0          1      )

 cart.    s( 1) = (  1.0000000  0.0000000  0.0000000 )
                  (  0.0000000  1.0000000  0.0000000 )
                  (  0.0000000  0.0000000  1.0000000 )


   Cartesian axes

     site n.     atom                  positions (alat units)
         1           Si  tau(   1) = (   0.7454390   0.9317940   0.0559603  )
         2           Si  tau(   2) = (   0.0147851   0.0122215   0.9893070  )
         3           Si  tau(   3) = (   0.0904755   0.0878222   0.0841936  )
         4           Si  tau(   4) = (   0.1719150   0.1693270   0.9995880  )
         5           Si  tau(   5) = (   0.2533220   0.2517300   0.0836181  )
         6           Si  tau(   6) = (   0.1688400   0.9996030   0.1659870  )
         7           Si  tau(   7) = (   0.2515670   0.0827567   0.2497370  )
         8           Si  tau(   8) = (   0.0023329   0.1668520   0.1657220  )
         9           Si  tau(   9) = (   0.0854086   0.2496050   0.2493330  )
        10           Si  tau(  10) = (   0.0024026   0.9988160   0.3349320  )
        11           Si  tau(  11) = (   0.0853792   0.0830403   0.4164590  )
        12           Si  tau(  12) = (   0.1683170   0.1660300   0.3327130  )
        13           Si  tau(  13) = (   0.2517790   0.2490490   0.4161530  )
        14           Si  tau(  14) = (   0.1682850   0.9997010   0.4990910  )
        15           Si  tau(  15) = (   0.2511780   0.0838883   0.5809820  )
        16           Si  tau(  16) = (   0.0013201   0.1658950   0.4991620  )
        17           Si  tau(  17) = (   0.0832358   0.2497010   0.5827350  )
        18           Si  tau(  18) = (   0.0005329   0.9976390   0.6659600  )
        19           Si  tau(  19) = (   0.0865900   0.0793169   0.7470400  )
        20           Si  tau(  20) = (   0.1675910   0.1659850   0.6651480  )
        21           Si  tau(  21) = (   0.2497690   0.2497780   0.7493770  )
        22           Si  tau(  22) = (   0.1697580   0.9980460   0.8319330  )
        23           Si  tau(  23) = (   0.2514220   0.0833213   0.9153530  )
        24           Si  tau(  24) = (   0.0098866   0.1749550   0.8242570  )
        25           Si  tau(  25) = (   0.0868537   0.2527340   0.9191070  )
        26           Si  tau(  26) = (   0.0006067   0.3334440   0.0008602  )
        27           Si  tau(  27) = (   0.0848497   0.4163400   0.0831472  )
        28           Si  tau(  28) = (   0.1685870   0.4990300   0.9998380  )
        29           Si  tau(  29) = (   0.2510310   0.5817520   0.0837258  )
        30           Si  tau(  30) = (   0.1684340   0.3334500   0.1664300  )
        31           Si  tau(  31) = (   0.2523590   0.4160580   0.2494810  )
        32           Si  tau(  32) = (   0.0019130   0.4991750   0.1668910  )
        33           Si  tau(  33) = (   0.0847892   0.5826340   0.2499780  )
        34           Si  tau(  34) = (   0.0010619   0.3322560   0.3318130  )
        35           Si  tau(  35) = (   0.0865641   0.4145580   0.4127570  )
        36           Si  tau(  36) = (   0.1693420   0.4997760   0.3318900  )
        37           Si  tau(  37) = (   0.2517450   0.5827540   0.4162440  )
        38           Si  tau(  38) = (   0.1677390   0.3322060   0.4988730  )
        39           Si  tau(  39) = (   0.2502240   0.4166350   0.5822680  )
        40           Si  tau(  40) = (   0.0084194   0.4925010   0.5057570  )
        41           Si  tau(  41) = (   0.0867998   0.5861950   0.5832080  )
        42           Si  tau(  42) = (   0.9981280   0.3331300   0.6651810  )
        43           Si  tau(  43) = (   0.0833287   0.4161880   0.7482320  )
        44           Si  tau(  44) = (   0.1678500   0.5005400   0.6662570  )
        45           Si  tau(  45) = (   0.2521440   0.5829020   0.7498020  )
        46           Si  tau(  46) = (   0.1676930   0.3344550   0.8325080  )
        47           Si  tau(  47) = (   0.2516940   0.4175440   0.9152910  )
        48           Si  tau(  48) = (   0.0027177   0.4992090   0.8336720  )
        49           Si  tau(  49) = (   0.0864884   0.5822580   0.9162360  )
        50           Si  tau(  50) = (   0.0020402   0.6632690   0.9995360  )
        51           Si  tau(  51) = (   0.0850844   0.7480220   0.0819584  )
        52           Si  tau(  52) = (   0.1688310   0.8325650   0.0005797  )
        53           Si  tau(  53) = (   0.2519630   0.9163220   0.0830169  )
        54           Si  tau(  54) = (   0.1678210   0.6654770   0.1662620  )
        55           Si  tau(  55) = (   0.2504210   0.7492960   0.2494830  )
        56           Si  tau(  56) = (   0.0055104   0.8257970   0.1731890  )
        57           Si  tau(  57) = (   0.0854098   0.9173870   0.2500070  )
        58           Si  tau(  58) = (   0.0025300   0.6624870   0.3374830  )
        59           Si  tau(  59) = (   0.0852350   0.7498850   0.4166420  )
        60           Si  tau(  60) = (   0.1680440   0.8330260   0.3328460  )
        61           Si  tau(  61) = (   0.2511490   0.9159240   0.4163010  )
        62           Si  tau(  62) = (   0.1697480   0.6675620   0.4988910  )
        63           Si  tau(  63) = (   0.2530800   0.7497090   0.5824690  )
        64           Si  tau(  64) = (   0.0018873   0.8328190   0.4998700  )
        65           Si  tau(  65) = (   0.0853436   0.9163520   0.5824740  )
        66           Si  tau(  66) = (   0.0027273   0.6680750   0.6656180  )
        67           Si  tau(  67) = (   0.0878414   0.7498880   0.7477450  )
        68           Si  tau(  68) = (   0.1700090   0.8335280   0.6647790  )
        69           Si  tau(  69) = (   0.2531390   0.9161390   0.7484100  )
        70           Si  tau(  70) = (   0.1690630   0.6664630   0.8328500  )
        71           Si  tau(  71) = (   0.2516720   0.7496510   0.9165480  )
        72           Si  tau(  72) = (   0.0024956   0.8296890   0.8316020  )
        73           Si  tau(  73) = (   0.0873299   0.9133430   0.9143900  )
        74           Si  tau(  74) = (   0.3338250   0.0001400   0.9992440  )
        75           Si  tau(  75) = (   0.4166870   0.0835032   0.0826413  )
        76           Si  tau(  76) = (   0.4986290   0.1693250   0.0007631  )
        77           Si  tau(  77) = (   0.5851290   0.2490810   0.0836062  )
        78           Si  tau(  78) = (   0.4990760   0.0022810   0.1689990  )
        79           Si  tau(  79) = (   0.5853830   0.0825760   0.2512530  )
        80           Si  tau(  80) = (   0.3346300   0.1667540   0.1667690  )
        81           Si  tau(  81) = (   0.4183080   0.2496470   0.2499120  )
        82           Si  tau(  82) = (   0.3342820   0.9991820   0.3332310  )
        83           Si  tau(  83) = (   0.4183180   0.0824928   0.4156750  )
        84           Si  tau(  84) = (   0.5015640   0.1664430   0.3331390  )
        85           Si  tau(  85) = (   0.5842000   0.2500600   0.4164300  )
        86           Si  tau(  86) = (   0.5008920   0.9996710   0.4999430  )
        87           Si  tau(  87) = (   0.5843120   0.0834224   0.5824720  )
        88           Si  tau(  88) = (   0.3357000   0.1662940   0.4986720  )
        89           Si  tau(  89) = (   0.4176730   0.2504760   0.5822850  )
        90           Si  tau(  90) = (   0.3335350   0.0000025   0.6635370  )
        91           Si  tau(  91) = (   0.4147880   0.0846381   0.7457510  )
        92           Si  tau(  92) = (   0.5010890   0.1672030   0.6651080  )
        93           Si  tau(  93) = (   0.5843720   0.2511480   0.7480180  )
        94           Si  tau(  94) = (   0.4967940   0.0019032   0.8291350  )
        95           Si  tau(  95) = (   0.5759070   0.0930981   0.9073040  )
        96           Si  tau(  96) = (   0.3337990   0.1668270   0.8318220  )
        97           Si  tau(  97) = (   0.4164520   0.2506120   0.9154320  )
        98           Si  tau(  98) = (   0.3343400   0.3342690   0.9985860  )
        99           Si  tau(  99) = (   0.4176530   0.4151820   0.0829903  )
       100           Si  tau( 100) = (   0.4997370   0.4976900   0.9991560  )
       101           Si  tau( 101) = (   0.5821440   0.5797250   0.0836703  )
       102           Si  tau( 102) = (   0.5015800   0.3326040   0.1662680  )
       103           Si  tau( 103) = (   0.5842510   0.4162850   0.2496810  )
       104           Si  tau( 104) = (   0.3354250   0.4991500   0.1662200  )
       105           Si  tau( 105) = (   0.4181950   0.5824860   0.2498780  )
       106           Si  tau( 106) = (   0.3349370   0.3327590   0.3332280  )
       107           Si  tau( 107) = (   0.4178790   0.4164720   0.4163620  )
       108           Si  tau( 108) = (   0.5014090   0.4995300   0.3332700  )
       109           Si  tau( 109) = (   0.5846660   0.5827470   0.4164800  )
       110           Si  tau( 110) = (   0.5013700   0.3337400   0.4996480  )
       111           Si  tau( 111) = (   0.5847370   0.4173530   0.5825770  )
       112           Si  tau( 112) = (   0.3347580   0.4996470   0.4998770  )
       113           Si  tau( 113) = (   0.4181950   0.5830840   0.5830750  )
       114           Si  tau( 114) = (   0.3335370   0.3331060   0.6658220  )
       115           Si  tau( 115) = (   0.4177340   0.4163120   0.7487860  )
       116           Si  tau( 116) = (   0.5017020   0.5000710   0.6665560  )
       117           Si  tau( 117) = (   0.5851030   0.5831360   0.7506760  )
       118           Si  tau( 118) = (   0.5005790   0.3327630   0.8321190  )
       119           Si  tau( 119) = (   0.5834300   0.4152510   0.9161850  )
       120           Si  tau( 120) = (   0.3357060   0.5000830   0.8325940  )
       121           Si  tau( 121) = (   0.4181320   0.5828570   0.9166420  )
       122           Si  tau( 122) = (   0.3332130   0.6645400   0.9996240  )
       123           Si  tau( 123) = (   0.4152580   0.7468620   0.0838333  )
       124           Si  tau( 124) = (   0.4971490   0.8313300   0.0012087  )
       125           Si  tau( 125) = (   0.5782710   0.9128510   0.0889456  )
       126           Si  tau( 126) = (   0.5013270   0.6659310   0.1664970  )
       127           Si  tau( 127) = (   0.5853880   0.7484770   0.2502480  )
       128           Si  tau( 128) = (   0.3339520   0.8323140   0.1665960  )
       129           Si  tau( 129) = (   0.4171630   0.9157790   0.2499600  )
       130           Si  tau( 130) = (   0.3343440   0.6660140   0.3323010  )
       131           Si  tau( 131) = (   0.4178200   0.7494650   0.4150280  )
       132           Si  tau( 132) = (   0.5017470   0.8327560   0.3324140  )
       133           Si  tau( 133) = (   0.5836690   0.9154230   0.4177920  )
       134           Si  tau( 134) = (   0.5003900   0.6661150   0.4985210  )
       135           Si  tau( 135) = (   0.5827990   0.7494910   0.5819140  )
       136           Si  tau( 136) = (   0.3352380   0.8328700   0.4986110  )
       137           Si  tau( 137) = (   0.4175310   0.9161470   0.5822120  )
       138           Si  tau( 138) = (   0.3352410   0.6664020   0.6665380  )
       139           Si  tau( 139) = (   0.4181420   0.7498470   0.7499440  )
       140           Si  tau( 140) = (   0.5005770   0.8333850   0.6658400  )
       141           Si  tau( 141) = (   0.5828420   0.9180980   0.7488540  )
       142           Si  tau( 142) = (   0.5009720   0.6662600   0.8334600  )
       143           Si  tau( 143) = (   0.5818530   0.7513190   0.9171490  )
       144           Si  tau( 144) = (   0.3350880   0.8332760   0.8333820  )
       145           Si  tau( 145) = (   0.4178640   0.9177650   0.9163440  )
       146           Si  tau( 146) = (   0.6338110   0.9812560   0.9729750  )
       147           Si  tau( 147) = (   0.7524040   0.0802031   0.0825110  )
       148           Si  tau( 148) = (   0.8357890   0.1663480   0.9999160  )
       149           Si  tau( 149) = (   0.9176410   0.2500900   0.0841222  )
       150           Si  tau( 150) = (   0.8339570   0.0040990   0.1766320  )
       151           Si  tau( 151) = (   0.9228320   0.0857508   0.2538230  )
       152           Si  tau( 152) = (   0.6678530   0.1642670   0.1663720  )
       153           Si  tau( 153) = (   0.7515140   0.2482580   0.2490680  )
       154           Si  tau( 154) = (   0.6664350   0.9999180   0.3367570  )
       155           Si  tau( 155) = (   0.7513790   0.0836632   0.4172310  )
       156           Si  tau( 156) = (   0.8349890   0.1668520   0.3338130  )
       157           Si  tau( 157) = (   0.9182000   0.2500570   0.4166300  )
       158           Si  tau( 158) = (   0.8346410   0.0001484   0.5000660  )
       159           Si  tau( 159) = (   0.9184700   0.0830159   0.5831120  )
       160           Si  tau( 160) = (   0.6674610   0.1670540   0.4996990  )
       161           Si  tau( 161) = (   0.7503270   0.2509660   0.5823100  )
       162           Si  tau( 162) = (   0.6673610   0.9998870   0.6654630  )
       163           Si  tau( 163) = (   0.7510050   0.0843766   0.7468470  )
       164           Si  tau( 164) = (   0.8336980   0.1670440   0.6640070  )
       165           Si  tau( 165) = (   0.9136750   0.2513580   0.7483090  )
       166           Si  tau( 166) = (   0.8374670   0.0045495   0.8305180  )
       167           Si  tau( 167) = (   0.9207680   0.0891591   0.9131110  )
       168           Si  tau( 168) = (   0.6695560   0.1693680   0.8299780  )
       169           Si  tau( 169) = (   0.7506530   0.2496950   0.9178220  )
       170           Si  tau( 170) = (   0.6669170   0.3330500   0.0001090  )
       171           Si  tau( 171) = (   0.7505340   0.4157390   0.0834386  )
       172           Si  tau( 172) = (   0.8357710   0.4981050   0.0020396  )
       173           Si  tau( 173) = (   0.9187460   0.5822360   0.0841926  )
       174           Si  tau( 174) = (   0.8339830   0.3329770   0.1668160  )
       175           Si  tau( 175) = (   0.9179040   0.4160230   0.2493060  )
       176           Si  tau( 176) = (   0.6684160   0.4993940   0.1669890  )
       177           Si  tau( 177) = (   0.7521090   0.5832560   0.2496840  )
       178           Si  tau( 178) = (   0.6673740   0.3319320   0.3317740  )
       179           Si  tau( 179) = (   0.7499950   0.4162540   0.4143650  )
       180           Si  tau( 180) = (   0.8353110   0.4993470   0.3331650  )
       181           Si  tau( 181) = (   0.9189790   0.5793600   0.4195170  )
       182           Si  tau( 182) = (   0.8325220   0.3327760   0.4973460  )
       183           Si  tau( 183) = (   0.9135970   0.4148800   0.5820100  )
       184           Si  tau( 184) = (   0.6683410   0.4996370   0.4991260  )
       185           Si  tau( 185) = (   0.7511360   0.5828460   0.5832690  )
       186           Si  tau( 186) = (   0.6681000   0.3349210   0.6660470  )
       187           Si  tau( 187) = (   0.7515240   0.4175740   0.7505510  )
       188           Si  tau( 188) = (   0.8348850   0.5001390   0.6664800  )
       189           Si  tau( 189) = (   0.9223860   0.5809600   0.7471250  )
       190           Si  tau( 190) = (   0.8330720   0.3334430   0.8344040  )
       191           Si  tau( 191) = (   0.9182550   0.4163260   0.9162440  )
       192           Si  tau( 192) = (   0.6675740   0.4993150   0.8346950  )
       193           Si  tau( 193) = (   0.7510760   0.5795320   0.9203640  )
       194           Si  tau( 194) = (   0.6628560   0.6624370   0.9964580  )
       195           Si  tau( 195) = (   0.7580370   0.7535040   0.0829508  )
       196           Si  tau( 196) = (   0.8558250   0.8467790   0.9732800  )
       197           Si  tau( 197) = (   0.8988520   0.8953070   0.1062580  )
       198           Si  tau( 198) = (   0.8381170   0.6663490   0.1683010  )
       199           Si  tau( 199) = (   0.9195440   0.7462150   0.2558620  )
       200           Si  tau( 200) = (   0.6713410   0.8348810   0.1680640  )
       201           Si  tau( 201) = (   0.7510630   0.9175250   0.2560840  )
       202           Si  tau( 202) = (   0.6686060   0.6657740   0.3335420  )
       203           Si  tau( 203) = (   0.7518940   0.7486790   0.4175380  )
       204           Si  tau( 204) = (   0.8355320   0.8322790   0.3356360  )
       205           Si  tau( 205) = (   0.9182390   0.9163790   0.4177140  )
       206           Si  tau( 206) = (   0.8355690   0.6650330   0.5003170  )
       207           Si  tau( 207) = (   0.9180010   0.7499750   0.5829000  )
       208           Si  tau( 208) = (   0.6678600   0.8321090   0.4999350  )
       209           Si  tau( 209) = (   0.7508030   0.9166620   0.5823950  )
       210           Si  tau( 210) = (   0.6659290   0.6658150   0.6643700  )
       211           Si  tau( 211) = (   0.7486600   0.7506420   0.7446100  )
       212           Si  tau( 212) = (   0.8346100   0.8339340   0.6653460  )
       213           Si  tau( 213) = (   0.9181120   0.9148280   0.7505130  )
       214           Si  tau( 214) = (   0.8249880   0.6564560   0.8228530  )
       215           Si  tau( 215) = (   0.9210950   0.7372250   0.9069550  )
       216           Si  tau( 216) = (   0.6644220   0.8305500   0.8296100  )
       217           Si  tau( 217) = (   0.7483460   0.9185900   0.9053670  )
       218           H   tau( 218) = (   0.9617150   0.9606810   0.0563439  )
       219           H   tau( 219) = (   0.9144650   0.9104930   0.9338490  )
       220           H   tau( 220) = (   0.6890770   0.6808830   0.0938601  )
       221           H   tau( 221) = (   0.7697370   0.5955740   0.7681350  )
       222           H   tau( 222) = (   0.5864050   0.9198730   0.9228490  )
       223           H   tau( 223) = (   0.0608086   0.4347640   0.5660630  )
       224           H   tau( 224) = (   0.0630738   0.2330960   0.7653010  )

   Crystallographic axes

     site n.     atom                  positions (cryst. coord.)
         1           Si  tau(   1) = (  0.7454390  0.9317940  0.0559603  )
         2           Si  tau(   2) = (  0.0147851  0.0122215  0.9893070  )
         3           Si  tau(   3) = (  0.0904755  0.0878222  0.0841936  )
         4           Si  tau(   4) = (  0.1719150  0.1693270  0.9995880  )
         5           Si  tau(   5) = (  0.2533220  0.2517300  0.0836181  )
         6           Si  tau(   6) = (  0.1688400  0.9996030  0.1659870  )
         7           Si  tau(   7) = (  0.2515670  0.0827567  0.2497370  )
         8           Si  tau(   8) = (  0.0023329  0.1668520  0.1657220  )
         9           Si  tau(   9) = (  0.0854086  0.2496050  0.2493330  )
        10           Si  tau(  10) = (  0.0024026  0.9988160  0.3349320  )
        11           Si  tau(  11) = (  0.0853792  0.0830403  0.4164590  )
        12           Si  tau(  12) = (  0.1683170  0.1660300  0.3327130  )
        13           Si  tau(  13) = (  0.2517790  0.2490490  0.4161530  )
        14           Si  tau(  14) = (  0.1682850  0.9997010  0.4990910  )
        15           Si  tau(  15) = (  0.2511780  0.0838883  0.5809820  )
        16           Si  tau(  16) = (  0.0013201  0.1658950  0.4991620  )
        17           Si  tau(  17) = (  0.0832358  0.2497010  0.5827350  )
        18           Si  tau(  18) = (  0.0005329  0.9976390  0.6659600  )
        19           Si  tau(  19) = (  0.0865900  0.0793169  0.7470400  )
        20           Si  tau(  20) = (  0.1675910  0.1659850  0.6651480  )
        21           Si  tau(  21) = (  0.2497690  0.2497780  0.7493770  )
        22           Si  tau(  22) = (  0.1697580  0.9980460  0.8319330  )
        23           Si  tau(  23) = (  0.2514220  0.0833213  0.9153530  )
        24           Si  tau(  24) = (  0.0098866  0.1749550  0.8242570  )
        25           Si  tau(  25) = (  0.0868537  0.2527340  0.9191070  )
        26           Si  tau(  26) = (  0.0006067  0.3334440  0.0008602  )
        27           Si  tau(  27) = (  0.0848497  0.4163400  0.0831472  )
        28           Si  tau(  28) = (  0.1685870  0.4990300  0.9998380  )
        29           Si  tau(  29) = (  0.2510310  0.5817520  0.0837258  )
        30           Si  tau(  30) = (  0.1684340  0.3334500  0.1664300  )
        31           Si  tau(  31) = (  0.2523590  0.4160580  0.2494810  )
        32           Si  tau(  32) = (  0.0019130  0.4991750  0.1668910  )
        33           Si  tau(  33) = (  0.0847892  0.5826340  0.2499780  )
        34           Si  tau(  34) = (  0.0010619  0.3322560  0.3318130  )
        35           Si  tau(  35) = (  0.0865641  0.4145580  0.4127570  )
        36           Si  tau(  36) = (  0.1693420  0.4997760  0.3318900  )
        37           Si  tau(  37) = (  0.2517450  0.5827540  0.4162440  )
        38           Si  tau(  38) = (  0.1677390  0.3322060  0.4988730  )
        39           Si  tau(  39) = (  0.2502240  0.4166350  0.5822680  )
        40           Si  tau(  40) = (  0.0084194  0.4925010  0.5057570  )
        41           Si  tau(  41) = (  0.0867998  0.5861950  0.5832080  )
        42           Si  tau(  42) = (  0.9981280  0.3331300  0.6651810  )
        43           Si  tau(  43) = (  0.0833287  0.4161880  0.7482320  )
        44           Si  tau(  44) = (  0.1678500  0.5005400  0.6662570  )
        45           Si  tau(  45) = (  0.2521440  0.5829020  0.7498020  )
        46           Si  tau(  46) = (  0.1676930  0.3344550  0.8325080  )
        47           Si  tau(  47) = (  0.2516940  0.4175440  0.9152910  )
        48           Si  tau(  48) = (  0.0027177  0.4992090  0.8336720  )
        49           Si  tau(  49) = (  0.0864884  0.5822580  0.9162360  )
        50           Si  tau(  50) = (  0.0020402  0.6632690  0.9995360  )
        51           Si  tau(  51) = (  0.0850844  0.7480220  0.0819584  )
        52           Si  tau(  52) = (  0.1688310  0.8325650  0.0005797  )
        53           Si  tau(  53) = (  0.2519630  0.9163220  0.0830169  )
        54           Si  tau(  54) = (  0.1678210  0.6654770  0.1662620  )
        55           Si  tau(  55) = (  0.2504210  0.7492960  0.2494830  )
        56           Si  tau(  56) = (  0.0055104  0.8257970  0.1731890  )
        57           Si  tau(  57) = (  0.0854098  0.9173870  0.2500070  )
        58           Si  tau(  58) = (  0.0025300  0.6624870  0.3374830  )
        59           Si  tau(  59) = (  0.0852350  0.7498850  0.4166420  )
        60           Si  tau(  60) = (  0.1680440  0.8330260  0.3328460  )
        61           Si  tau(  61) = (  0.2511490  0.9159240  0.4163010  )
        62           Si  tau(  62) = (  0.1697480  0.6675620  0.4988910  )
        63           Si  tau(  63) = (  0.2530800  0.7497090  0.5824690  )
        64           Si  tau(  64) = (  0.0018873  0.8328190  0.4998700  )
        65           Si  tau(  65) = (  0.0853436  0.9163520  0.5824740  )
        66           Si  tau(  66) = (  0.0027273  0.6680750  0.6656180  )
        67           Si  tau(  67) = (  0.0878414  0.7498880  0.7477450  )
        68           Si  tau(  68) = (  0.1700090  0.8335280  0.6647790  )
        69           Si  tau(  69) = (  0.2531390  0.9161390  0.7484100  )
        70           Si  tau(  70) = (  0.1690630  0.6664630  0.8328500  )
        71           Si  tau(  71) = (  0.2516720  0.7496510  0.9165480  )
        72           Si  tau(  72) = (  0.0024956  0.8296890  0.8316020  )
        73           Si  tau(  73) = (  0.0873299  0.9133430  0.9143900  )
        74           Si  tau(  74) = (  0.3338250  0.0001400  0.9992440  )
        75           Si  tau(  75) = (  0.4166870  0.0835032  0.0826413  )
        76           Si  tau(  76) = (  0.4986290  0.1693250  0.0007631  )
        77           Si  tau(  77) = (  0.5851290  0.2490810  0.0836062  )
        78           Si  tau(  78) = (  0.4990760  0.0022810  0.1689990  )
        79           Si  tau(  79) = (  0.5853830  0.0825760  0.2512530  )
        80           Si  tau(  80) = (  0.3346300  0.1667540  0.1667690  )
        81           Si  tau(  81) = (  0.4183080  0.2496470  0.2499120  )
        82           Si  tau(  82) = (  0.3342820  0.9991820  0.3332310  )
        83           Si  tau(  83) = (  0.4183180  0.0824928  0.4156750  )
        84           Si  tau(  84) = (  0.5015640  0.1664430  0.3331390  )
        85           Si  tau(  85) = (  0.5842000  0.2500600  0.4164300  )
        86           Si  tau(  86) = (  0.5008920  0.9996710  0.4999430  )
        87           Si  tau(  87) = (  0.5843120  0.0834224  0.5824720  )
        88           Si  tau(  88) = (  0.3357000  0.1662940  0.4986720  )
        89           Si  tau(  89) = (  0.4176730  0.2504760  0.5822850  )
        90           Si  tau(  90) = (  0.3335350  0.0000025  0.6635370  )
        91           Si  tau(  91) = (  0.4147880  0.0846381  0.7457510  )
        92           Si  tau(  92) = (  0.5010890  0.1672030  0.6651080  )
        93           Si  tau(  93) = (  0.5843720  0.2511480  0.7480180  )
        94           Si  tau(  94) = (  0.4967940  0.0019032  0.8291350  )
        95           Si  tau(  95) = (  0.5759070  0.0930981  0.9073040  )
        96           Si  tau(  96) = (  0.3337990  0.1668270  0.8318220  )
        97           Si  tau(  97) = (  0.4164520  0.2506120  0.9154320  )
        98           Si  tau(  98) = (  0.3343400  0.3342690  0.9985860  )
        99           Si  tau(  99) = (  0.4176530  0.4151820  0.0829903  )
       100           Si  tau( 100) = (  0.4997370  0.4976900  0.9991560  )
       101           Si  tau( 101) = (  0.5821440  0.5797250  0.0836703  )
       102           Si  tau( 102) = (  0.5015800  0.3326040  0.1662680  )
       103           Si  tau( 103) = (  0.5842510  0.4162850  0.2496810  )
       104           Si  tau( 104) = (  0.3354250  0.4991500  0.1662200  )
       105           Si  tau( 105) = (  0.4181950  0.5824860  0.2498780  )
       106           Si  tau( 106) = (  0.3349370  0.3327590  0.3332280  )
       107           Si  tau( 107) = (  0.4178790  0.4164720  0.4163620  )
       108           Si  tau( 108) = (  0.5014090  0.4995300  0.3332700  )
       109           Si  tau( 109) = (  0.5846660  0.5827470  0.4164800  )
       110           Si  tau( 110) = (  0.5013700  0.3337400  0.4996480  )
       111           Si  tau( 111) = (  0.5847370  0.4173530  0.5825770  )
       112           Si  tau( 112) = (  0.3347580  0.4996470  0.4998770  )
       113           Si  tau( 113) = (  0.4181950  0.5830840  0.5830750  )
       114           Si  tau( 114) = (  0.3335370  0.3331060  0.6658220  )
       115           Si  tau( 115) = (  0.4177340  0.4163120  0.7487860  )
       116           Si  tau( 116) = (  0.5017020  0.5000710  0.6665560  )
       117           Si  tau( 117) = (  0.5851030  0.5831360  0.7506760  )
       118           Si  tau( 118) = (  0.5005790  0.3327630  0.8321190  )
       119           Si  tau( 119) = (  0.5834300  0.4152510  0.9161850  )
       120           Si  tau( 120) = (  0.3357060  0.5000830  0.8325940  )
       121           Si  tau( 121) = (  0.4181320  0.5828570  0.9166420  )
       122           Si  tau( 122) = (  0.3332130  0.6645400  0.9996240  )
       123           Si  tau( 123) = (  0.4152580  0.7468620  0.0838333  )
       124           Si  tau( 124) = (  0.4971490  0.8313300  0.0012087  )
       125           Si  tau( 125) = (  0.5782710  0.9128510  0.0889456  )
       126           Si  tau( 126) = (  0.5013270  0.6659310  0.1664970  )
       127           Si  tau( 127) = (  0.5853880  0.7484770  0.2502480  )
       128           Si  tau( 128) = (  0.3339520  0.8323140  0.1665960  )
       129           Si  tau( 129) = (  0.4171630  0.9157790  0.2499600  )
       130           Si  tau( 130) = (  0.3343440  0.6660140  0.3323010  )
       131           Si  tau( 131) = (  0.4178200  0.7494650  0.4150280  )
       132           Si  tau( 132) = (  0.5017470  0.8327560  0.3324140  )
       133           Si  tau( 133) = (  0.5836690  0.9154230  0.4177920  )
       134           Si  tau( 134) = (  0.5003900  0.6661150  0.4985210  )
       135           Si  tau( 135) = (  0.5827990  0.7494910  0.5819140  )
       136           Si  tau( 136) = (  0.3352380  0.8328700  0.4986110  )
       137           Si  tau( 137) = (  0.4175310  0.9161470  0.5822120  )
       138           Si  tau( 138) = (  0.3352410  0.6664020  0.6665380  )
       139           Si  tau( 139) = (  0.4181420  0.7498470  0.7499440  )
       140           Si  tau( 140) = (  0.5005770  0.8333850  0.6658400  )
       141           Si  tau( 141) = (  0.5828420  0.9180980  0.7488540  )
       142           Si  tau( 142) = (  0.5009720  0.6662600  0.8334600  )
       143           Si  tau( 143) = (  0.5818530  0.7513190  0.9171490  )
       144           Si  tau( 144) = (  0.3350880  0.8332760  0.8333820  )
       145           Si  tau( 145) = (  0.4178640  0.9177650  0.9163440  )
       146           Si  tau( 146) = (  0.6338110  0.9812560  0.9729750  )
       147           Si  tau( 147) = (  0.7524040  0.0802031  0.0825110  )
       148           Si  tau( 148) = (  0.8357890  0.1663480  0.9999160  )
       149           Si  tau( 149) = (  0.9176410  0.2500900  0.0841222  )
       150           Si  tau( 150) = (  0.8339570  0.0040990  0.1766320  )
       151           Si  tau( 151) = (  0.9228320  0.0857508  0.2538230  )
       152           Si  tau( 152) = (  0.6678530  0.1642670  0.1663720  )
       153           Si  tau( 153) = (  0.7515140  0.2482580  0.2490680  )
       154           Si  tau( 154) = (  0.6664350  0.9999180  0.3367570  )
       155           Si  tau( 155) = (  0.7513790  0.0836632  0.4172310  )
       156           Si  tau( 156) = (  0.8349890  0.1668520  0.3338130  )
       157           Si  tau( 157) = (  0.9182000  0.2500570  0.4166300  )
       158           Si  tau( 158) = (  0.8346410  0.0001484  0.5000660  )
       159           Si  tau( 159) = (  0.9184700  0.0830159  0.5831120  )
       160           Si  tau( 160) = (  0.6674610  0.1670540  0.4996990  )
       161           Si  tau( 161) = (  0.7503270  0.2509660  0.5823100  )
       162           Si  tau( 162) = (  0.6673610  0.9998870  0.6654630  )
       163           Si  tau( 163) = (  0.7510050  0.0843766  0.7468470  )
       164           Si  tau( 164) = (  0.8336980  0.1670440  0.6640070  )
       165           Si  tau( 165) = (  0.9136750  0.2513580  0.7483090  )
       166           Si  tau( 166) = (  0.8374670  0.0045495  0.8305180  )
       167           Si  tau( 167) = (  0.9207680  0.0891591  0.9131110  )
       168           Si  tau( 168) = (  0.6695560  0.1693680  0.8299780  )
       169           Si  tau( 169) = (  0.7506530  0.2496950  0.9178220  )
       170           Si  tau( 170) = (  0.6669170  0.3330500  0.0001090  )
       171           Si  tau( 171) = (  0.7505340  0.4157390  0.0834386  )
       172           Si  tau( 172) = (  0.8357710  0.4981050  0.0020396  )
       173           Si  tau( 173) = (  0.9187460  0.5822360  0.0841926  )
       174           Si  tau( 174) = (  0.8339830  0.3329770  0.1668160  )
       175           Si  tau( 175) = (  0.9179040  0.4160230  0.2493060  )
       176           Si  tau( 176) = (  0.6684160  0.4993940  0.1669890  )
       177           Si  tau( 177) = (  0.7521090  0.5832560  0.2496840  )
       178           Si  tau( 178) = (  0.6673740  0.3319320  0.3317740  )
       179           Si  tau( 179) = (  0.7499950  0.4162540  0.4143650  )
       180           Si  tau( 180) = (  0.8353110  0.4993470  0.3331650  )
       181           Si  tau( 181) = (  0.9189790  0.5793600  0.4195170  )
       182           Si  tau( 182) = (  0.8325220  0.3327760  0.4973460  )
       183           Si  tau( 183) = (  0.9135970  0.4148800  0.5820100  )
       184           Si  tau( 184) = (  0.6683410  0.4996370  0.4991260  )
       185           Si  tau( 185) = (  0.7511360  0.5828460  0.5832690  )
       186           Si  tau( 186) = (  0.6681000  0.3349210  0.6660470  )
       187           Si  tau( 187) = (  0.7515240  0.4175740  0.7505510  )
       188           Si  tau( 188) = (  0.8348850  0.5001390  0.6664800  )
       189           Si  tau( 189) = (  0.9223860  0.5809600  0.7471250  )
       190           Si  tau( 190) = (  0.8330720  0.3334430  0.8344040  )
       191           Si  tau( 191) = (  0.9182550  0.4163260  0.9162440  )
       192           Si  tau( 192) = (  0.6675740  0.4993150  0.8346950  )
       193           Si  tau( 193) = (  0.7510760  0.5795320  0.9203640  )
       194           Si  tau( 194) = (  0.6628560  0.6624370  0.9964580  )
       195           Si  tau( 195) = (  0.7580370  0.7535040  0.0829508  )
       196           Si  tau( 196) = (  0.8558250  0.8467790  0.9732800  )
       197           Si  tau( 197) = (  0.8988520  0.8953070  0.1062580  )
       198           Si  tau( 198) = (  0.8381170  0.6663490  0.1683010  )
       199           Si  tau( 199) = (  0.9195440  0.7462150  0.2558620  )
       200           Si  tau( 200) = (  0.6713410  0.8348810  0.1680640  )
       201           Si  tau( 201) = (  0.7510630  0.9175250  0.2560840  )
       202           Si  tau( 202) = (  0.6686060  0.6657740  0.3335420  )
       203           Si  tau( 203) = (  0.7518940  0.7486790  0.4175380  )
       204           Si  tau( 204) = (  0.8355320  0.8322790  0.3356360  )
       205           Si  tau( 205) = (  0.9182390  0.9163790  0.4177140  )
       206           Si  tau( 206) = (  0.8355690  0.6650330  0.5003170  )
       207           Si  tau( 207) = (  0.9180010  0.7499750  0.5829000  )
       208           Si  tau( 208) = (  0.6678600  0.8321090  0.4999350  )
       209           Si  tau( 209) = (  0.7508030  0.9166620  0.5823950  )
       210           Si  tau( 210) = (  0.6659290  0.6658150  0.6643700  )
       211           Si  tau( 211) = (  0.7486600  0.7506420  0.7446100  )
       212           Si  tau( 212) = (  0.8346100  0.8339340  0.6653460  )
       213           Si  tau( 213) = (  0.9181120  0.9148280  0.7505130  )
       214           Si  tau( 214) = (  0.8249880  0.6564560  0.8228530  )
       215           Si  tau( 215) = (  0.9210950  0.7372250  0.9069550  )
       216           Si  tau( 216) = (  0.6644220  0.8305500  0.8296100  )
       217           Si  tau( 217) = (  0.7483460  0.9185900  0.9053670  )
       218           H   tau( 218) = (  0.9617150  0.9606810  0.0563439  )
       219           H   tau( 219) = (  0.9144650  0.9104930  0.9338490  )
       220           H   tau( 220) = (  0.6890770  0.6808830  0.0938601  )
       221           H   tau( 221) = (  0.7697370  0.5955740  0.7681350  )
       222           H   tau( 222) = (  0.5864050  0.9198730  0.9228490  )
       223           H   tau( 223) = (  0.0608086  0.4347640  0.5660630  )
       224           H   tau( 224) = (  0.0630738  0.2330960  0.7653010  )

     number of k points=     8  Marzari-Vanderbilt smearing, width (Ry)=  0.0500
                       cart. coord. in units 2pi/alat
        k(    1) = (   0.0000000   0.0000000   0.0000000), wk =   0.2500000
        k(    2) = (   0.0000000   0.0000000  -0.5000000), wk =   0.2500000
        k(    3) = (   0.0000000  -0.5000000  -0.5000000), wk =   0.2500000
        k(    4) = (  -0.5000000  -0.5000000  -0.5000000), wk =   0.2500000
        k(    5) = (  -0.5000000   0.0000000   0.0000000), wk =   0.2500000
        k(    6) = (   0.0000000  -0.5000000   0.0000000), wk =   0.2500000
        k(    7) = (  -0.5000000   0.0000000   0.5000000), wk =   0.2500000
        k(    8) = (  -0.5000000   0.5000000   0.0000000), wk =   0.2500000

                       cryst. coord.
        k(    1) = (   0.0000000   0.0000000   0.0000000), wk =   0.2500000
        k(    2) = (   0.0000000   0.0000000  -0.5000000), wk =   0.2500000
        k(    3) = (   0.0000000  -0.5000000  -0.5000000), wk =   0.2500000
        k(    4) = (  -0.5000000  -0.5000000  -0.5000000), wk =   0.2500000
        k(    5) = (  -0.5000000   0.0000000   0.0000000), wk =   0.2500000
        k(    6) = (   0.0000000  -0.5000000   0.0000000), wk =   0.2500000
        k(    7) = (  -0.5000000   0.0000000   0.5000000), wk =   0.2500000
        k(    8) = (  -0.5000000   0.5000000   0.0000000), wk =   0.2500000

     Dense  grid:  1078507 G-vectors     FFT dimensions: ( 128, 128, 128)

     Dynamical RAM for                 wfc:     135.26 MB

     Dynamical RAM for     wfc (w. buffer):    1217.38 MB

     Dynamical RAM for           str. fact:       4.11 MB

     Dynamical RAM for           local pot:       0.00 MB

     Dynamical RAM for          nlocal pot:     279.01 MB

     Dynamical RAM for                qrad:       1.75 MB

     Dynamical RAM for          rho,v,vnew:      12.17 MB

     Dynamical RAM for               rhoin:       4.06 MB

     Dynamical RAM for            rho*nmix:      32.91 MB

     Dynamical RAM for           G-vectors:       8.74 MB

     Dynamical RAM for          h,s,v(r/c):     202.64 MB

     Dynamical RAM for          <psi|beta>:       8.71 MB

     Dynamical RAM for                 psi:     541.06 MB

     Dynamical RAM for                hpsi:     541.06 MB

     Dynamical RAM for      wfcinit/wfcrot:     467.55 MB

     Estimated static dynamical RAM per process >       1.54 GB

     Estimated max dynamical RAM per process >       2.80 GB

     Estimated total dynamical RAM >      22.42 GB

     Initial potential from superposition of free atoms

     starting charge  874.87857, renormalised to  875.00000
     Starting wfc are  875 randomized atomic wfcs

     total cpu time spent up to now is      314.5 secs

     Self-consistent Calculation

     iteration #  1     ecut=    42.00 Ry     beta= 0.30
     Davidson diagonalization with overlap
     ethr =  1.00E-02,  avg # of iterations =  3.4

     Threshold (ethr) on eigenvalues was too large:
     Diagonalizing with lowered threshold

     Davidson diagonalization with overlap
     ethr =  7.73E-04,  avg # of iterations =  4.0

     total cpu time spent up to now is     1559.7 secs

     total energy              =   -1716.67041325 Ry
     Harris-Foulkes estimate   =   -1717.74571438 Ry
     estimated scf accuracy    <       6.61729525 Ry

     iteration #  2     ecut=    42.00 Ry     beta= 0.30
     Davidson diagonalization with overlap
     ethr =  7.56E-04,  avg # of iterations =  4.9

     total cpu time spent up to now is     2050.0 secs

     total energy              =   -1716.07392642 Ry
     Harris-Foulkes estimate   =   -1716.98442303 Ry
     estimated scf accuracy    <       4.06109925 Ry

     iteration #  3     ecut=    42.00 Ry     beta= 0.30
     Davidson diagonalization with overlap
     ethr =  4.64E-04,  avg # of iterations =  6.4

     total cpu time spent up to now is     2707.4 secs

     total energy              =   -1715.88706475 Ry
     Harris-Foulkes estimate   =   -1717.07663834 Ry
     estimated scf accuracy    <       7.07567302 Ry

     iteration #  4     ecut=    42.00 Ry     beta= 0.30
     Davidson diagonalization with overlap
     ethr =  4.64E-04,  avg # of iterations =  4.0

     total cpu time spent up to now is     3249.1 secs

     total energy              =   -1716.33824752 Ry
     Harris-Foulkes estimate   =   -1716.44673097 Ry
     estimated scf accuracy    <       0.50828565 Ry

     iteration #  5     ecut=    42.00 Ry     beta= 0.30
     Davidson diagonalization with overlap
     ethr =  5.81E-05,  avg # of iterations =  9.8

     total cpu time spent up to now is     4039.7 secs

     total energy              =   -1716.39925001 Ry
     Harris-Foulkes estimate   =   -1716.42243416 Ry
     estimated scf accuracy    <       0.13132774 Ry

     iteration #  6     ecut=    42.00 Ry     beta= 0.30
     Davidson diagonalization with overlap
     ethr =  1.50E-05,  avg # of iterations =  9.5

     total cpu time spent up to now is     4720.1 secs

     total energy              =   -1716.41061690 Ry
     Harris-Foulkes estimate   =   -1716.41558524 Ry
     estimated scf accuracy    <       0.02999956 Ry

     iteration #  7     ecut=    42.00 Ry     beta= 0.30
     Davidson diagonalization with overlap
     ethr =  3.43E-06,  avg # of iterations = 10.8

     total cpu time spent up to now is     5468.0 secs

     total energy              =   -1716.41258653 Ry
     Harris-Foulkes estimate   =   -1716.41454696 Ry
     estimated scf accuracy    <       0.01106545 Ry

     iteration #  8     ecut=    42.00 Ry     beta= 0.30
     Davidson diagonalization with overlap
     ethr =  1.26E-06,  avg # of iterations =  7.9

     total cpu time spent up to now is     6111.6 secs

     total energy              =   -1716.41291477 Ry
     Harris-Foulkes estimate   =   -1716.41447694 Ry
     estimated scf accuracy    <       0.00849309 Ry

     iteration #  9     ecut=    42.00 Ry     beta= 0.30
     Davidson diagonalization with overlap
     ethr =  9.71E-07,  avg # of iterations =  3.8

     total cpu time spent up to now is     6609.8 secs

     total energy              =   -1716.41368993 Ry
     Harris-Foulkes estimate   =   -1716.41406477 Ry
     estimated scf accuracy    <       0.00233826 Ry

     iteration # 10     ecut=    42.00 Ry     beta= 0.30
     Davidson diagonalization with overlap
     ethr =  2.67E-07,  avg # of iterations =  3.1

     total cpu time spent up to now is     7089.3 secs

     total energy              =   -1716.41388589 Ry
     Harris-Foulkes estimate   =   -1716.41397114 Ry
     estimated scf accuracy    <       0.00041062 Ry

     iteration # 11     ecut=    42.00 Ry     beta= 0.30
     Davidson diagonalization with overlap
     ethr =  4.69E-08,  avg # of iterations =  3.4

     total cpu time spent up to now is     7605.3 secs

     total energy              =   -1716.41393810 Ry
     Harris-Foulkes estimate   =   -1716.41396618 Ry
     estimated scf accuracy    <       0.00014441 Ry

     iteration # 12     ecut=    42.00 Ry     beta= 0.30
     Davidson diagonalization with overlap
     ethr =  1.65E-08,  avg # of iterations =  3.0

     total cpu time spent up to now is     8089.7 secs

     total energy              =   -1716.41395618 Ry
     Harris-Foulkes estimate   =   -1716.41396046 Ry
     estimated scf accuracy    <       0.00003369 Ry

     iteration # 13     ecut=    42.00 Ry     beta= 0.30
     Davidson diagonalization with overlap
     ethr =  3.85E-09,  avg # of iterations =  3.6

     total cpu time spent up to now is     8599.9 secs

     total energy              =   -1716.41396005 Ry
     Harris-Foulkes estimate   =   -1716.41396294 Ry
     estimated scf accuracy    <       0.00002256 Ry

     iteration # 14     ecut=    42.00 Ry     beta= 0.30
     Davidson diagonalization with overlap
     ethr =  2.58E-09,  avg # of iterations =  3.0

     total cpu time spent up to now is     9063.4 secs

     total energy              =   -1716.41396333 Ry
     Harris-Foulkes estimate   =   -1716.41396280 Ry
     estimated scf accuracy    <       0.00000399 Ry

     iteration # 15     ecut=    42.00 Ry     beta= 0.30
     Davidson diagonalization with overlap
     ethr =  4.57E-10,  avg # of iterations =  3.1

     total cpu time spent up to now is     9551.1 secs

     total energy              =   -1716.41396432 Ry
     Harris-Foulkes estimate   =   -1716.41396392 Ry
     estimated scf accuracy    <       0.00000168 Ry

     iteration # 16     ecut=    42.00 Ry     beta= 0.30
     Davidson diagonalization with overlap
     ethr =  1.92E-10,  avg # of iterations =  3.0

     total cpu time spent up to now is    10001.3 secs

     total energy              =   -1716.41396479 Ry
     Harris-Foulkes estimate   =   -1716.41396450 Ry
     estimated scf accuracy    <       0.00000041 Ry

     iteration # 17     ecut=    42.00 Ry     beta= 0.30
     Davidson diagonalization with overlap
     ethr =  4.68E-11,  avg # of iterations =  3.0

     total cpu time spent up to now is    10493.9 secs

     total energy              =   -1716.41396490 Ry
     Harris-Foulkes estimate   =   -1716.41396485 Ry
     estimated scf accuracy    <       0.00000028 Ry

     iteration # 18     ecut=    42.00 Ry     beta= 0.30
     Davidson diagonalization with overlap
     ethr =  3.15E-11,  avg # of iterations =  3.4

     total cpu time spent up to now is    10908.7 secs

     total energy              =   -1716.41396497 Ry
     Harris-Foulkes estimate   =   -1716.41396495 Ry
     estimated scf accuracy    <       0.00000018 Ry

     iteration # 19     ecut=    42.00 Ry     beta= 0.30
     Davidson diagonalization with overlap
     ethr =  2.00E-11,  avg # of iterations =  3.0

     total cpu time spent up to now is    11310.6 secs

     total energy              =   -1716.41396499 Ry
     Harris-Foulkes estimate   =   -1716.41396498 Ry
     estimated scf accuracy    <       0.00000003 Ry

     iteration # 20     ecut=    42.00 Ry     beta= 0.30
     Davidson diagonalization with overlap
     ethr =  3.97E-12,  avg # of iterations =  3.6

     total cpu time spent up to now is    11742.8 secs

     total energy              =   -1716.41396500 Ry
     Harris-Foulkes estimate   =   -1716.41396500 Ry
     estimated scf accuracy    <       0.00000001 Ry

     iteration # 21     ecut=    42.00 Ry     beta= 0.30
     Davidson diagonalization with overlap
     ethr =  1.56E-12,  avg # of iterations =  3.2

     total cpu time spent up to now is    12161.5 secs

     End of self-consistent calculation

          k = 0.0000 0.0000 0.0000 (134683 PWs)   bands (ev):

    -6.1597  -5.6237  -5.3888  -5.3581  -5.3019  -5.2335  -5.2225  -5.0860
    -4.9817  -4.9551  -4.8553  -4.8496  -4.8110  -4.7765  -4.7707  -4.7645
    -4.7535  -4.7474  -4.7449  -4.5413  -4.4442  -4.4172  -4.4114  -4.3796
    -4.3524  -4.3409  -4.3240  -4.0549  -4.0023  -3.9751  -3.9033  -3.8689
    -3.8404  -3.7546  -3.6925  -3.6608  -3.6469  -3.6045  -3.5605  -3.5448
    -3.5149  -3.4998  -3.4723  -3.4499  -3.4448  -3.4303  -3.4295  -3.4271
    -3.4231  -3.4202  -3.4168  -3.4138  -3.4127  -3.4060  -3.4040  -3.4022
    -3.3987  -3.3710  -3.3053  -3.2972  -3.2868  -3.2692  -3.2599  -3.2562
    -3.2474  -3.2417  -3.2404  -3.2318  -3.2290  -3.2175  -3.2104  -3.2000
    -3.1971  -3.1932  -3.1922  -3.1892  -3.1842  -3.1824  -3.1776  -3.1654
    -3.1632  -2.5665  -2.5557  -2.5253  -2.5020  -2.4897  -2.4756  -2.4738
    -2.4714  -2.4612  -2.4509  -2.4437  -2.4343  -1.9204  -1.8920  -1.7479
    -1.7213  -1.6732  -1.6430  -1.6230  -1.5873  -1.5693  -1.5393  -1.5222
    -1.5154  -1.5028  -1.4940  -1.4887  -1.4838  -1.4727  -1.4715  -1.4656
    -1.4452  -1.4409  -1.4356  -1.4316  -1.4298  -1.4263  -1.4238  -1.4214
    -1.4172  -1.4127  -1.4107  -1.2949  -1.1211  -0.8153  -0.7681  -0.7380
    -0.7045  -0.6418  -0.5953  -0.5851  -0.5605  -0.5541  -0.5315  -0.5212
    -0.5095  -0.4978  -0.4751  -0.4573  -0.4307  -0.4203  -0.4098  -0.3888
    -0.3830  -0.3705  -0.3576  -0.3545  -0.3490  -0.3433  -0.3410  -0.3360
    -0.3292  -0.3280  -0.3205  -0.3182  -0.3145  -0.3062  -0.2986   0.2447
     0.3634   0.4226   0.4287   0.4478   0.4758   0.4924   0.5029   0.5442
     0.5445   0.5584   0.5629   0.5698   0.5820   0.5872   0.5916   0.5954
     0.6004   0.6025   0.6044   0.6085   0.6094   0.6104   0.6172   0.6329
     0.7450   0.7828   0.8032   0.8517   0.8906   0.8953   0.9142   0.9245
     1.0160   1.1796   1.1901   1.2012   1.2162   1.2176   1.2399   1.4153
     1.5109   1.5683   1.6502   1.6848   1.7588   1.7783   1.8082   1.8235
     1.8410   1.8961   2.0123   2.0704   2.0957   2.1295   2.1487   2.2274
     2.2724   2.3253   2.3582   2.3819   2.4260   2.4571   2.4706   2.4911
     2.4940   2.5012   2.5079   2.5163   2.5217   2.5245   2.5257   2.5361
     2.5435   2.5477   2.5804   2.5880   2.5954   2.5985   2.6025   2.6067
     2.6213   2.6235   2.6285   2.6334   2.6347   2.6450   2.6465   2.6467
     2.6483   2.6535   2.6582   2.6596   2.6631   2.6703   2.6725   2.6736
     2.6763   2.6797   2.6811   2.6871   2.6882   2.6904   2.6919   2.6986
     2.7067   2.7129   2.7160   2.7358   2.7428   3.0814   3.1148   3.1946
     3.2280   3.2604   3.2785   3.2961   3.3087   3.3204   3.3319   3.3497
     3.3562   3.3732   3.3859   3.3972   3.4039   3.4117   3.4290   3.4410
     3.4444   3.4517   3.4576   3.4664   3.4691   3.4716   3.4773   3.4850
     3.4890   3.5034   3.5091   3.5568   3.5881   3.6034   3.6579   3.6724
     3.7074   3.7123   3.7142   3.7220   3.7334   3.7537   3.7715   3.7809
     3.7930   3.8007   3.8078   3.8134   3.8152   3.8193   3.8271   3.8321
     3.8374   3.8428   3.8457   3.8575   3.8606   3.8650   3.8701   3.8793
     3.8914   3.9022   3.9107   3.9243   3.9277   3.9325   3.9391   3.9411
     3.9492   3.9514   3.9569   3.9626   3.9659   3.9690   3.9716   3.9733
     3.9842   3.9995   4.0081   4.0950   4.1085   4.1117   4.1152   4.1180
     4.1261   4.1276   4.1384   4.1407   4.1433   4.1509   4.1554   4.1610
     4.1664   4.1777   4.1856   4.2042   4.2187   4.3491   4.3689   4.3723
     4.3936   4.3975   4.4085   4.4106   4.4150   4.4174   4.4311   4.4442
     4.4548   4.4626   4.4700   4.4729   4.4844   4.4850   4.4911   4.4930
     4.5080   4.5148   4.5221   4.5237   4.5329   4.7590   4.8838   4.8967
     4.9325   4.9773   4.9970   5.0131   5.0173   5.0324   5.0509   5.0564
     5.0654   5.0843   5.1224   5.1640   5.1777   5.1872   5.1965   5.2045
     5.2104   5.2191   5.2218   5.2235   5.2310   5.2412   5.2475   5.2489
     5.2580   5.2931   5.3716   5.4947   5.5963   5.6227   5.6382   5.6438
     5.6508   5.6637   5.6655   5.6723   5.6794   5.6830   5.7218   5.7559
     5.9266   6.0428   6.1324   6.2238   6.2354   6.2557   6.4256   6.6742
     6.8647   6.9005   6.9559   6.9697   6.9815   6.9959   7.0933   7.1559
     7.1699   7.2377   7.2945   7.3771   7.5144   7.6190   7.6372   7.7078
     7.7473   7.7733   7.7829   7.7968   7.8305   7.8491   7.8594   7.8622
     7.8773   7.9016   7.9047   7.9221   7.9294   7.9369   7.9444   7.9618
     7.9686   7.9890   7.9977   8.0216   8.0596   8.1016   8.1112   8.1423
     8.1456   8.1653   8.1702   8.1869   8.2010   8.2069   8.2130   8.2167
     8.2236   8.2378   8.2431   8.2489   8.2506   8.2514   8.2604   8.2672
     8.2853   8.2953   8.3082   8.3278   8.4357   8.4817   8.5086   8.5681
     8.5966   8.6275   8.6346   8.6630   8.6992   8.7231   8.7646   8.7866
     8.8471   8.8679   8.8817   8.8973   8.9115   8.9184   8.9298   8.9365
     8.9478   8.9511   8.9610   8.9677   8.9687   8.9830

     occupation numbers 
     1.0000   1.0000   1.0000   1.0000   1.0000   1.0000   1.0000   1.0000
     1.0000   1.0000   1.0000   1.0000   1.0000   1.0000   1.0000   1.0000
     1.0000   1.0000   1.0000   1.0000   1.0000   1.0000   1.0000   1.0000
     1.0000   1.0000   1.0000   1.0000   1.0000   1.0000   1.0000   1.0000
     1.0000   1.0000   1.0000   1.0000   1.0000   1.0000   1.0000   1.0000
     1.0000   1.0000   1.0000   1.0000   1.0000   1.0000   1.0000   1.0000
     1.0000   1.0000   1.0000   1.0000   1.0000   1.0000   1.0000   1.0000
     1.0000   1.0000   1.0000   1.0000   1.0000   1.0000   1.0000   1.0000
     1.0000   1.0000   1.0000   1.0000   1.0000   1.0000   1.0000   1.0000
     1.0000   1.0000   1.0000   1.0000   1.0000   1.0000   1.0000   1.0000
     1.0000   1.0000   1.0000   1.0000   1.0000   1.0000   1.0000   1.0000
     1.0000   1.0000   1.0000   1.0000   1.0000   1.0000   1.0000   1.0000
     1.0000   1.0000   1.0000   1.0000   1.0000   1.0000   1.0000   1.0000
     1.0000   1.0000   1.0000   1.0000   1.0000   1.0000   1.0000   1.0000
     1.0000   1.0000   1.0000   1.0000   1.0000   1.0000   1.0000   1.0000
     1.0000   1.0000   1.0000   1.0000   1.0000   1.0000   1.0000   1.0000
     1.0000   1.0000   1.0000   1.0000   1.0000   1.0000   1.0000   1.0000
     1.0000   1.0000   1.0000   1.0000   1.0000   1.0000   1.0000   1.0000
     1.0000   1.0000   1.0000   1.0000   1.0000   1.0000   1.0000   1.0000
     1.0000   1.0000   1.0000   1.0000   1.0000   1.0000   1.0000   1.0000
     1.0000   1.0000   1.0000   1.0000   1.0000   1.0000   1.0000   1.0000
     1.0000   1.0000   1.0000   1.0000   1.0000   1.0000   1.0000   1.0000
     1.0000   1.0000   1.0000   1.0000   1.0000   1.0000   1.0000   1.0000
     1.0000   1.0000   1.0000   1.0000   1.0000   1.0000   1.0000   1.0000
     1.0000   1.0000   1.0000   1.0000   1.0000   1.0000   1.0000   1.0000
     1.0000   1.0000   1.0000   1.0000   1.0000   1.0000   1.0000   1.0000
     1.0000   1.0000   1.0000   1.0000   1.0000   1.0000   1.0000   1.0000
     1.0000   1.0000   1.0000   1.0000   1.0000   1.0000   1.0000   1.0000
     1.0000   1.0000   1.0000   1.0000   1.0000   1.0000   1.0000   1.0000
     1.0000   1.0000   1.0000   1.0000   1.0000   1.0000   1.0000   1.0000
     1.0000   1.0000   1.0000   1.0000   1.0000   1.0000   1.0000   1.0000
     1.0000   1.0000   1.0000   1.0000   1.0000   1.0000   1.0000   1.0000
     1.0000   1.0000   1.0000   1.0000   1.0000   1.0000   1.0000   1.0000
     1.0000   1.0000   1.0000   1.0000   1.0000   1.0000   1.0000   1.0000
     1.0000   1.0000   1.0000   1.0000   1.0000   1.0000   1.0000   1.0000
     1.0000   1.0000   1.0000   1.0000   1.0000   1.0000   1.0000   1.0000
     1.0000   1.0000   1.0000   1.0000   1.0000   1.0000   1.0000   1.0000
     1.0000   1.0000   1.0000   1.0000   1.0000   1.0000   1.0000   1.0000
     1.0001   1.0001   1.0001   1.0001   1.0001   1.0001   1.0001   1.0001
     1.0001   1.0001   1.0001   1.0001   1.0001   1.0001   1.0001   1.0001
     1.0001   1.0002   1.0002   1.0002   1.0002   1.0002   1.0002   1.0002
     1.0002   1.0002   1.0003   1.0003   1.0003   1.0003   1.0003   1.0003
     1.0003   1.0004   1.0004   1.0004   1.0004   1.0004   1.0004   1.0004
     1.0005   1.0005   1.0005   1.0010   1.0011   1.0011   1.0011   1.0012
     1.0012   1.0012   1.0013   1.0013   1.0014   1.0014   1.0015   1.0015
     1.0016   1.0017   1.0018   1.0020   1.0022   1.0048   1.0053   1.0054
     1.0061   1.0062   1.0066   1.0067   1.0069   1.0070   1.0075   1.0080
     1.0084   1.0088   1.0091   1.0093   1.0098   1.0098   1.0101   1.0102
     1.0110   1.0114   1.0118   1.0119   1.0124   1.0318   1.0475   1.0492
     1.0542   1.0603   1.0630   1.0652   1.0657   1.0677   1.0700   1.0706
     1.0717   1.0739   1.0777   1.0809   1.0817   1.0822   1.0826   1.0828
     1.0830   1.0832   1.0832   1.0832   1.0833   1.0833   1.0832   1.0832
     1.0830   1.0814   1.0718   1.0362   0.9852   0.9686   0.9582   0.9543
     0.9494   0.9401   0.9387   0.9337   0.9283   0.9256   0.8943   0.8647
     0.6935   0.5655   0.4679   0.3743   0.3630   0.3437   0.2046   0.0781
     0.0316   0.0262   0.0194   0.0180   0.0168   0.0155   0.0087   0.0059
     0.0054   0.0035   0.0024   0.0013   0.0005   0.0002   0.0002   0.0001
     0.0001   0.0001   0.0000   0.0000   0.0000   0.0000   0.0000   0.0000
     0.0000   0.0000   0.0000   0.0000   0.0000   0.0000   0.0000   0.0000
     0.0000   0.0000   0.0000   0.0000   0.0000   0.0000   0.0000   0.0000
     0.0000   0.0000   0.0000   0.0000   0.0000   0.0000   0.0000   0.0000
     0.0000   0.0000   0.0000   0.0000   0.0000   0.0000   0.0000   0.0000
     0.0000   0.0000   0.0000   0.0000   0.0000   0.0000   0.0000   0.0000
     0.0000   0.0000   0.0000   0.0000   0.0000   0.0000   0.0000   0.0000
     0.0000   0.0000   0.0000   0.0000   0.0000   0.0000   0.0000   0.0000
     0.0000   0.0000   0.0000   0.0000   0.0000   0.0000

          k = 0.0000 0.0000-0.5000 (134800 PWs)   bands (ev):

    -6.1536  -5.6087  -5.4912  -5.3475  -5.2935  -5.1769  -5.1336  -5.1210
    -5.1001  -5.0879  -4.8903  -4.8543  -4.8221  -4.7402  -4.7141  -4.6980
    -4.6853  -4.6447  -4.6283  -4.6157  -4.4006  -4.3630  -4.3378  -4.2670
    -4.2468  -4.2106  -4.1974  -4.1837  -4.0766  -4.0038  -3.9710  -3.9263
    -3.9175  -3.8698  -3.8533  -3.8477  -3.8213  -3.8164  -3.8060  -3.7534
    -3.7338  -3.7150  -3.6932  -3.6820  -3.5854  -3.5420  -3.4997  -3.4801
    -3.4325  -3.4284  -3.4111  -3.3944  -3.3802  -3.3651  -3.3516  -3.3445
    -3.3353  -3.3328  -3.3294  -3.3249  -3.2220  -3.1850  -3.1730  -3.1594
    -3.1535  -3.1480  -3.1440  -3.1408  -3.0417  -3.0305  -3.0184  -3.0121
    -3.0078  -2.9889  -2.9830  -2.9739  -2.8952  -2.8650  -2.7631  -2.7563
    -2.7431  -2.7166  -2.6881  -2.6759  -2.6671  -2.6575  -2.5542  -2.5359
    -2.5272  -2.5156  -2.5046  -2.4941  -2.4860  -2.4829  -2.0789  -2.0077
    -1.9957  -1.9675  -1.9530  -1.9488  -1.9314  -1.9294  -1.8011  -1.7427
    -1.6244  -1.6118  -1.5702  -1.5371  -1.5222  -1.5095  -1.4491  -1.4458
    -1.4086  -1.4038  -1.3948  -1.2579  -1.1468  -1.0991  -1.0865  -1.0636
    -1.0513  -1.0266  -1.0006  -0.9827  -0.8575  -0.8019  -0.7558  -0.7009
    -0.6718  -0.6623  -0.6337  -0.6080  -0.5950  -0.5824  -0.5794  -0.5680
    -0.5483  -0.5281  -0.4729  -0.4437  -0.4274  -0.4235  -0.4189  -0.4033
    -0.3969  -0.3959  -0.3147  -0.2338  -0.2116  -0.1507  -0.1317  -0.0732
    -0.0622  -0.0438  -0.0186   0.0056   0.0206   0.0292   0.0479   0.0707
     0.0871   0.1059   0.1245   0.1406   0.1459   0.1531   0.1625   0.1671
     0.1771   0.1830   0.1893   0.1999   0.2212   0.2247   0.2363   0.2374
     0.2395   0.2442   0.2581   0.2608   0.5545   0.8886   0.9387   0.9803
     1.0020   1.0178   1.0375   1.0663   1.0759   1.0923   1.2044   1.2870
     1.4076   1.4404   1.4762   1.4967   1.5277   1.5394   1.5810   1.6270
     1.6380   1.6614   1.6914   1.7378   1.7613   1.8117   1.8391   1.8571
     1.8667   1.8708   1.8956   1.9589   1.9854   2.0156   2.0265   2.0612
     2.0675   2.0793   2.0826   2.0924   2.1073   2.1498   2.1693   2.2017
     2.2164   2.2554   2.2793   2.3214   2.3318   2.3532   2.3655   2.3687
     2.3889   2.4133   2.4229   2.4486   2.4525   2.4714   2.4767   2.4773
     2.5917   2.6455   2.6731   2.6992   2.7165   2.7339   2.7722   2.7918
     2.8157   2.8685   2.8874   2.9001   2.9035   2.9286   2.9789   2.9937
     3.0033   3.0120   3.0210   3.0249   3.0292   3.0351   3.0415   3.0428
     3.0518   3.0591   3.0667   3.0747   3.0831   3.0889   3.0902   3.0968
     3.1022   3.1099   3.1176   3.1203   3.1350   3.1411   3.1432   3.1508
     3.1522   3.1618   3.2753   3.2787   3.2942   3.3245   3.3552   3.3693
     3.3733   3.3920   3.4015   3.4131   3.4174   3.4301   3.4319   3.4397
     3.4436   3.4502   3.4552   3.4656   3.4693   3.4781   3.4893   3.4981
     3.5056   3.5117   3.5159   3.5226   3.5261   3.5404   3.5556   3.5771
     3.5847   3.5959   3.6091   3.6342   3.6381   3.6535   3.6698   3.7220
     3.7432   3.7541   3.8198   3.8330   3.8446   3.8688   3.9126   3.9359
     3.9439   3.9869   4.0004   4.0136   4.0313   4.0523   4.0599   4.0720
     4.0783   4.0974   4.1002   4.1087   4.1161   4.1208   4.1342   4.1401
     4.1487   4.1525   4.1592   4.1636   4.1671   4.1768   4.2027   4.2062
     4.2206   4.2246   4.2375   4.2482   4.2511   4.2544   4.2778   4.3040
     4.3204   4.3301   4.3495   4.3649   4.3982   4.4179   4.4418   4.4643
     4.4817   4.5102   4.5163   4.5383   4.5418   4.5514   4.5552   4.5700
     4.5823   4.5831   4.5863   4.5936   4.5968   4.6016   4.6051   4.6175
     4.6303   4.6421   4.6465   4.6540   4.6610   4.6675   4.6794   4.6859
     4.6932   4.7130   4.7792   4.7875   4.7973   4.8068   4.8150   4.8253
     4.8356   4.8430   4.8802   4.8978   4.9419   4.9485   4.9577   4.9703
     4.9752   4.9869   5.1303   5.2517   5.4014   5.4387   5.4629   5.4760
     5.4886   5.4914   5.5042   5.5282   5.5303   5.5364   5.5532   5.5568
     5.5625   5.5703   5.5767   5.5858   5.5920   5.6494   5.7164   5.7462
     5.7957   5.8211   5.8347   6.0138   6.1642   6.2340   6.4605   6.8333
     6.9486   7.0804   7.1928   7.2198   7.3912   7.4280   7.4650   7.5012
     7.5289   7.5603   7.5712   7.5803   7.5964   7.6133   7.6410   7.6493
     7.6590   7.6898   7.7088   7.7359   7.7542   7.7757   7.8015   7.8622
     7.8755   7.8985   7.9038   7.9228   7.9447   7.9527   7.9779   8.0138
     8.0272   8.0826   8.0922   8.1167   8.1346   8.1593   8.1950   8.2135
     8.2343   8.2510   8.2874   8.3029   8.3148   8.3337   8.3439   8.3514
     8.3744   8.3993   8.4206   8.4338   8.4443   8.4545   8.4589   8.4646
     8.4739   8.4863   8.4971   8.5105   8.5124   8.5241   8.5375   8.5401
     8.5566   8.5628   8.5667   8.5738   8.5835   8.5854   8.5961   8.6098
     8.6166   8.6206   8.6317   8.6347   8.6488   8.6600   8.6764   8.6813
     8.6868   8.7026   8.7045   8.7105   8.7204   8.7285

     occupation numbers 
     1.0000   1.0000   1.0000   1.0000   1.0000   1.0000   1.0000   1.0000
     1.0000   1.0000   1.0000   1.0000   1.0000   1.0000   1.0000   1.0000
     1.0000   1.0000   1.0000   1.0000   1.0000   1.0000   1.0000   1.0000
     1.0000   1.0000   1.0000   1.0000   1.0000   1.0000   1.0000   1.0000
     1.0000   1.0000   1.0000   1.0000   1.0000   1.0000   1.0000   1.0000
     1.0000   1.0000   1.0000   1.0000   1.0000   1.0000   1.0000   1.0000
     1.0000   1.0000   1.0000   1.0000   1.0000   1.0000   1.0000   1.0000
     1.0000   1.0000   1.0000   1.0000   1.0000   1.0000   1.0000   1.0000
     1.0000   1.0000   1.0000   1.0000   1.0000   1.0000   1.0000   1.0000
     1.0000   1.0000   1.0000   1.0000   1.0000   1.0000   1.0000   1.0000
     1.0000   1.0000   1.0000   1.0000   1.0000   1.0000   1.0000   1.0000
     1.0000   1.0000   1.0000   1.0000   1.0000   1.0000   1.0000   1.0000
     1.0000   1.0000   1.0000   1.0000   1.0000   1.0000   1.0000   1.0000
     1.0000   1.0000   1.0000   1.0000   1.0000   1.0000   1.0000   1.0000
     1.0000   1.0000   1.0000   1.0000   1.0000   1.0000   1.0000   1.0000
     1.0000   1.0000   1.0000   1.0000   1.0000   1.0000   1.0000   1.0000
     1.0000   1.0000   1.0000   1.0000   1.0000   1.0000   1.0000   1.0000
     1.0000   1.0000   1.0000   1.0000   1.0000   1.0000   1.0000   1.0000
     1.0000   1.0000   1.0000   1.0000   1.0000   1.0000   1.0000   1.0000
     1.0000   1.0000   1.0000   1.0000   1.0000   1.0000   1.0000   1.0000
     1.0000   1.0000   1.0000   1.0000   1.0000   1.0000   1.0000   1.0000
     1.0000   1.0000   1.0000   1.0000   1.0000   1.0000   1.0000   1.0000
     1.0000   1.0000   1.0000   1.0000   1.0000   1.0000   1.0000   1.0000
     1.0000   1.0000   1.0000   1.0000   1.0000   1.0000   1.0000   1.0000
     1.0000   1.0000   1.0000   1.0000   1.0000   1.0000   1.0000   1.0000
     1.0000   1.0000   1.0000   1.0000   1.0000   1.0000   1.0000   1.0000
     1.0000   1.0000   1.0000   1.0000   1.0000   1.0000   1.0000   1.0000
     1.0000   1.0000   1.0000   1.0000   1.0000   1.0000   1.0000   1.0000
     1.0000   1.0000   1.0000   1.0000   1.0000   1.0000   1.0000   1.0000
     1.0000   1.0000   1.0000   1.0000   1.0000   1.0000   1.0000   1.0000
     1.0000   1.0000   1.0000   1.0000   1.0000   1.0000   1.0000   1.0000
     1.0000   1.0000   1.0000   1.0000   1.0000   1.0000   1.0000   1.0000
     1.0000   1.0000   1.0000   1.0000   1.0000   1.0000   1.0000   1.0000
     1.0000   1.0000   1.0000   1.0000   1.0000   1.0000   1.0000   1.0000
     1.0000   1.0000   1.0000   1.0000   1.0000   1.0000   1.0000   1.0000
     1.0000   1.0000   1.0000   1.0000   1.0000   1.0000   1.0000   1.0000
     1.0000   1.0000   1.0000   1.0000   1.0000   1.0000   1.0000   1.0000
     1.0000   1.0000   1.0000   1.0000   1.0000   1.0000   1.0000   1.0000
     1.0000   1.0000   1.0000   1.0000   1.0000   1.0000   1.0000   1.0000
     1.0000   1.0000   1.0000   1.0000   1.0000   1.0000   1.0000   1.0001
     1.0001   1.0001   1.0001   1.0001   1.0002   1.0002   1.0003   1.0003
     1.0003   1.0005   1.0005   1.0006   1.0006   1.0007   1.0008   1.0008
     1.0009   1.0010   1.0010   1.0011   1.0011   1.0012   1.0013   1.0013
     1.0014   1.0014   1.0015   1.0016   1.0016   1.0017   1.0020   1.0020
     1.0022   1.0023   1.0025   1.0027   1.0027   1.0028   1.0032   1.0037
     1.0041   1.0043   1.0048   1.0052   1.0063   1.0070   1.0079   1.0089
     1.0097   1.0111   1.0115   1.0127   1.0129   1.0135   1.0138   1.0147
     1.0156   1.0156   1.0159   1.0164   1.0166   1.0170   1.0172   1.0182
     1.0192   1.0202   1.0206   1.0212   1.0218   1.0224   1.0235   1.0241
     1.0248   1.0268   1.0341   1.0351   1.0363   1.0375   1.0385   1.0398
     1.0411   1.0421   1.0470   1.0494   1.0555   1.0564   1.0577   1.0594
     1.0601   1.0617   1.0784   1.0832   1.0656   1.0558   1.0481   1.0434
     1.0387   1.0375   1.0323   1.0217   1.0207   1.0178   1.0094   1.0075
     1.0044   1.0002   0.9966   0.9914   0.9878   0.9503   0.8988   0.8733
     0.8279   0.8033   0.7898   0.5976   0.4345   0.3644   0.1814   0.0370
     0.0202   0.0094   0.0047   0.0039   0.0012   0.0009   0.0007   0.0005
     0.0004   0.0003   0.0003   0.0003   0.0002   0.0002   0.0002   0.0002
     0.0001   0.0001   0.0001   0.0001   0.0001   0.0001   0.0000   0.0000
     0.0000   0.0000   0.0000   0.0000   0.0000   0.0000   0.0000   0.0000
     0.0000   0.0000   0.0000   0.0000   0.0000   0.0000   0.0000   0.0000
     0.0000   0.0000   0.0000   0.0000   0.0000   0.0000   0.0000   0.0000
     0.0000   0.0000   0.0000   0.0000   0.0000   0.0000   0.0000   0.0000
     0.0000   0.0000   0.0000   0.0000   0.0000   0.0000   0.0000   0.0000
     0.0000   0.0000   0.0000   0.0000   0.0000   0.0000   0.0000   0.0000
     0.0000   0.0000   0.0000   0.0000   0.0000   0.0000   0.0000   0.0000
     0.0000   0.0000   0.0000   0.0000   0.0000   0.0000

          k = 0.0000-0.5000-0.5000 (134912 PWs)   bands (ev):

    -6.1486  -5.5456  -5.5012  -5.4749  -5.3132  -5.2674  -5.1436  -5.0454
    -5.0263  -5.0017  -4.9909  -4.9624  -4.8547  -4.7131  -4.6686  -4.6065
    -4.5492  -4.5334  -4.5161  -4.4854  -4.4221  -4.3267  -4.2689  -4.2206
    -4.2090  -4.2007  -4.1469  -4.1331  -4.1137  -4.1085  -4.1050  -4.0765
    -4.0731  -4.0661  -4.0608  -4.0572  -3.8785  -3.8666  -3.8136  -3.7864
    -3.7230  -3.6924  -3.6559  -3.6414  -3.6358  -3.6256  -3.6108  -3.5745
    -3.5515  -3.5322  -3.5118  -3.5056  -3.4650  -3.4504  -3.4437  -3.4371
    -3.1965  -3.1735  -3.1417  -3.1045  -3.0885  -3.0649  -3.0550  -3.0361
    -3.0272  -3.0069  -2.9923  -2.9871  -2.9773  -2.9723  -2.9710  -2.9664
    -2.8837  -2.8631  -2.8245  -2.7799  -2.7419  -2.7044  -2.6847  -2.6834
    -2.6634  -2.6301  -2.6100  -2.5983  -2.5507  -2.5387  -2.5268  -2.5201
    -2.5182  -2.5060  -2.4995  -2.4972  -2.4797  -2.4763  -2.4714  -2.4674
    -2.2842  -2.2823  -2.2602  -2.2307  -2.2051  -2.2024  -2.1967  -2.1924
    -1.8837  -1.8251  -1.7306  -1.7187  -1.5906  -1.4387  -1.3461  -1.3228
    -1.2697  -1.2302  -0.9587  -0.9225  -0.8590  -0.8082  -0.7678  -0.7546
    -0.7416  -0.7063  -0.6814  -0.6643  -0.6461  -0.6195  -0.6121  -0.5770
    -0.5655  -0.5390  -0.5237  -0.5157  -0.5071  -0.5030  -0.4908  -0.4687
    -0.4651  -0.4593  -0.4516  -0.4434  -0.4378  -0.4345  -0.4299  -0.4166
    -0.4040  -0.3914  -0.3610  -0.3520  -0.3474  -0.3309  -0.3259  -0.3177
    -0.3116  -0.3082  -0.3033  -0.2965  -0.2896  -0.2821  -0.2782  -0.2709
    -0.2627  -0.2580  -0.2542  -0.2372  -0.2345  -0.2274  -0.2246  -0.2125
     0.2894   0.5113   0.5354   0.5775   0.6325   0.6729   0.7229   0.7371
     0.7512   0.7583   0.7697   0.7768   0.7998   0.8197   0.8412   0.8541
     0.8731   0.8820   0.8865   0.9111   0.9403   0.9528   0.9628   0.9765
     0.9824   0.9926   1.0006   1.0125   1.0667   1.2234   1.5783   1.6052
     1.6348   1.7071   1.8646   1.9014   1.9552   1.9851   2.0338   2.0489
     2.0700   2.0877   2.1587   2.1889   2.2091   2.2099   2.2515   2.2561
     2.2619   2.2725   2.2813   2.2919   2.3096   2.3117   2.3160   2.3232
     2.3263   2.3316   2.3364   2.3442   2.3522   2.3556   2.3692   2.4064
     2.4185   2.4378   2.4416   2.4639   2.4923   2.5007   2.5102   2.5441
     2.5669   2.5828   2.5905   2.6084   2.6127   2.6332   2.6392   2.6609
     2.6640   2.6716   2.6809   2.6859   2.6957   2.7221   2.7477   2.7570
     2.7838   2.7996   2.8083   2.8177   2.8607   2.8800   2.9073   2.9493
     2.9627   2.9925   3.0524   3.0609   3.0698   3.0865   3.1082   3.1174
     3.1379   3.1431   3.1475   3.1603   3.1652   3.1807   3.1927   3.2044
     3.2092   3.2323   3.2365   3.2407   3.2587   3.2679   3.2795   3.2948
     3.3088   3.3308   3.3465   3.3598   3.3813   3.4163   3.4465   3.4548
     3.5077   3.5259   3.5460   3.5496   3.5619   3.5784   3.5827   3.5923
     3.5983   3.6046   3.6246   3.6321   3.6387   3.6489   3.6578   3.6626
     3.6736   3.6864   3.6884   3.6952   3.7150   3.7377   3.7402   3.7541
     3.7709   3.7786   3.7894   3.7944   3.8152   3.8185   3.8250   3.8329
     3.8382   3.8415   3.8488   3.8719   3.8940   3.9057   3.9213   3.9393
     3.9506   3.9691   3.9744   3.9801   3.9851   3.9911   4.0008   4.0153
     4.0585   4.1171   4.1765   4.1869   4.2078   4.2258   4.2365   4.2439
     4.2497   4.2603   4.2639   4.2724   4.2730   4.2857   4.2885   4.2942
     4.3095   4.3168   4.3307   4.3450   4.3550   4.3654   4.3799   4.3941
     4.4664   4.5055   4.5360   4.5559   4.5689   4.5793   4.6036   4.6057
     4.6179   4.6366   4.6400   4.6464   4.7258   4.7771   4.7931   4.8071
     4.8417   4.8518   4.8615   4.8694   4.8806   4.8918   4.9008   4.9122
     4.9223   4.9236   4.9332   4.9406   4.9461   4.9543   4.9597   4.9628
     4.9684   4.9776   4.9919   5.0005   5.0089   5.0160   5.0265   5.0341
     5.0405   5.0471   5.0758   5.1052   5.1170   5.1244   5.1327   5.1500
     5.1676   5.2048   5.2236   5.2663   5.2773   5.2946   5.3001   5.3086
     5.3357   5.3470   5.3871   5.3926   5.4687   5.5207   5.7647   5.9482
     6.0629   6.0864   6.1101   6.1337   6.1714   6.2766   6.6279   6.8463
     7.0472   7.1778   7.1871   7.2483   7.4032   7.4250   7.4618   7.4756
     7.4978   7.5073   7.5305   7.5867   7.6082   7.6210   7.6396   7.6445
     7.6727   7.6962   7.7432   7.7848   7.8077   7.8295   7.8565   7.8773
     7.9366   7.9471   7.9639   7.9816   8.0054   8.0107   8.0185   8.0349
     8.0432   8.0475   8.0578   8.0623   8.0725   8.0827   8.0896   8.0953
     8.1032   8.1069   8.1222   8.1327   8.1414   8.1444   8.1623   8.1974
     8.2141   8.2500   8.2635   8.2745   8.2982   8.3318   8.3476   8.3560
     8.4052   8.4256   8.4639   8.4938   8.5276   8.5455   8.5729   8.5982
     8.6169   8.6266   8.6319   8.6480   8.6543   8.6703   8.6786   8.7045
     8.7093   8.7202   8.7346   8.7468   8.7530   8.7682   8.7768   8.7912
     8.8097   8.8111   8.8178   8.8259   8.8308   8.8420

     occupation numbers 
     1.0000   1.0000   1.0000   1.0000   1.0000   1.0000   1.0000   1.0000
     1.0000   1.0000   1.0000   1.0000   1.0000   1.0000   1.0000   1.0000
     1.0000   1.0000   1.0000   1.0000   1.0000   1.0000   1.0000   1.0000
     1.0000   1.0000   1.0000   1.0000   1.0000   1.0000   1.0000   1.0000
     1.0000   1.0000   1.0000   1.0000   1.0000   1.0000   1.0000   1.0000
     1.0000   1.0000   1.0000   1.0000   1.0000   1.0000   1.0000   1.0000
     1.0000   1.0000   1.0000   1.0000   1.0000   1.0000   1.0000   1.0000
     1.0000   1.0000   1.0000   1.0000   1.0000   1.0000   1.0000   1.0000
     1.0000   1.0000   1.0000   1.0000   1.0000   1.0000   1.0000   1.0000
     1.0000   1.0000   1.0000   1.0000   1.0000   1.0000   1.0000   1.0000
     1.0000   1.0000   1.0000   1.0000   1.0000   1.0000   1.0000   1.0000
     1.0000   1.0000   1.0000   1.0000   1.0000   1.0000   1.0000   1.0000
     1.0000   1.0000   1.0000   1.0000   1.0000   1.0000   1.0000   1.0000
     1.0000   1.0000   1.0000   1.0000   1.0000   1.0000   1.0000   1.0000
     1.0000   1.0000   1.0000   1.0000   1.0000   1.0000   1.0000   1.0000
     1.0000   1.0000   1.0000   1.0000   1.0000   1.0000   1.0000   1.0000
     1.0000   1.0000   1.0000   1.0000   1.0000   1.0000   1.0000   1.0000
     1.0000   1.0000   1.0000   1.0000   1.0000   1.0000   1.0000   1.0000
     1.0000   1.0000   1.0000   1.0000   1.0000   1.0000   1.0000   1.0000
     1.0000   1.0000   1.0000   1.0000   1.0000   1.0000   1.0000   1.0000
     1.0000   1.0000   1.0000   1.0000   1.0000   1.0000   1.0000   1.0000
     1.0000   1.0000   1.0000   1.0000   1.0000   1.0000   1.0000   1.0000
     1.0000   1.0000   1.0000   1.0000   1.0000   1.0000   1.0000   1.0000
     1.0000   1.0000   1.0000   1.0000   1.0000   1.0000   1.0000   1.0000
     1.0000   1.0000   1.0000   1.0000   1.0000   1.0000   1.0000   1.0000
     1.0000   1.0000   1.0000   1.0000   1.0000   1.0000   1.0000   1.0000
     1.0000   1.0000   1.0000   1.0000   1.0000   1.0000   1.0000   1.0000
     1.0000   1.0000   1.0000   1.0000   1.0000   1.0000   1.0000   1.0000
     1.0000   1.0000   1.0000   1.0000   1.0000   1.0000   1.0000   1.0000
     1.0000   1.0000   1.0000   1.0000   1.0000   1.0000   1.0000   1.0000
     1.0000   1.0000   1.0000   1.0000   1.0000   1.0000   1.0000   1.0000
     1.0000   1.0000   1.0000   1.0000   1.0000   1.0000   1.0000   1.0000
     1.0000   1.0000   1.0000   1.0000   1.0000   1.0000   1.0000   1.0000
     1.0000   1.0000   1.0000   1.0000   1.0000   1.0000   1.0000   1.0000
     1.0000   1.0000   1.0000   1.0000   1.0000   1.0000   1.0000   1.0000
     1.0000   1.0000   1.0000   1.0000   1.0000   1.0000   1.0000   1.0000
     1.0000   1.0000   1.0000   1.0000   1.0000   1.0000   1.0000   1.0000
     1.0000   1.0000   1.0000   1.0000   1.0000   1.0000   1.0000   1.0000
     1.0000   1.0000   1.0000   1.0000   1.0000   1.0000   1.0000   1.0000
     1.0000   1.0000   1.0000   1.0000   1.0001   1.0001   1.0001   1.0001
     1.0001   1.0001   1.0001   1.0001   1.0001   1.0001   1.0001   1.0001
     1.0001   1.0002   1.0002   1.0002   1.0002   1.0003   1.0003   1.0003
     1.0004   1.0004   1.0004   1.0004   1.0005   1.0005   1.0005   1.0006
     1.0008   1.0011   1.0017   1.0018   1.0021   1.0023   1.0025   1.0026
     1.0027   1.0029   1.0029   1.0031   1.0031   1.0033   1.0034   1.0035
     1.0038   1.0040   1.0043   1.0047   1.0050   1.0052   1.0057   1.0061
     1.0090   1.0109   1.0126   1.0138   1.0147   1.0154   1.0171   1.0173
     1.0182   1.0197   1.0200   1.0206   1.0281   1.0339   1.0358   1.0375
     1.0419   1.0432   1.0445   1.0455   1.0470   1.0486   1.0498   1.0514
     1.0528   1.0529   1.0543   1.0553   1.0561   1.0572   1.0579   1.0584
     1.0591   1.0604   1.0623   1.0635   1.0646   1.0655   1.0669   1.0679
     1.0687   1.0695   1.0729   1.0761   1.0772   1.0779   1.0786   1.0800
     1.0811   1.0829   1.0832   1.0828   1.0823   1.0813   1.0809   1.0802
     1.0773   1.0758   1.0688   1.0676   1.0461   1.0251   0.8568   0.6699
     0.5433   0.5175   0.4918   0.4665   0.4270   0.3244   0.0952   0.0347
     0.0115   0.0051   0.0048   0.0032   0.0011   0.0009   0.0007   0.0006
     0.0005   0.0005   0.0004   0.0003   0.0002   0.0002   0.0002   0.0002
     0.0001   0.0001   0.0001   0.0000   0.0000   0.0000   0.0000   0.0000
     0.0000   0.0000   0.0000   0.0000   0.0000   0.0000   0.0000   0.0000
     0.0000   0.0000   0.0000   0.0000   0.0000   0.0000   0.0000   0.0000
     0.0000   0.0000   0.0000   0.0000   0.0000   0.0000   0.0000   0.0000
     0.0000   0.0000   0.0000   0.0000   0.0000   0.0000   0.0000   0.0000
     0.0000   0.0000   0.0000   0.0000   0.0000   0.0000   0.0000   0.0000
     0.0000   0.0000   0.0000   0.0000   0.0000   0.0000   0.0000   0.0000
     0.0000   0.0000   0.0000   0.0000   0.0000   0.0000   0.0000   0.0000
     0.0000   0.0000   0.0000   0.0000   0.0000   0.0000

          k =-0.5000-0.5000-0.5000 (134688 PWs)   bands (ev):

    -6.1434  -5.4934  -5.4685  -5.4164  -5.4005  -5.3477  -5.3211  -5.3051
    -5.0180  -4.8412  -4.8019  -4.6343  -4.6255  -4.5512  -4.5131  -4.4737
    -4.4638  -4.4505  -4.4330  -4.4232  -4.4173  -4.4097  -4.4006  -4.3995
    -4.3948  -4.3893  -4.3859  -4.3834  -4.3712  -4.3675  -4.3587  -4.3540
    -3.9826  -3.8685  -3.8471  -3.7896  -3.7371  -3.7292  -3.7168  -3.6732
    -3.6647  -3.6467  -3.6360  -3.6253  -3.6145  -3.6080  -3.6037  -3.6003
    -3.5891  -3.5861  -3.5772  -3.5761  -3.5714  -3.5687  -3.5631  -3.5585
    -3.3919  -3.3787  -3.3755  -3.3720  -3.0347  -2.9694  -2.9462  -2.8686
    -2.8350  -2.8129  -2.7671  -2.7529  -2.7210  -2.7012  -2.6789  -2.6667
    -2.6575  -2.6551  -2.6497  -2.6420  -2.6370  -2.6319  -2.6283  -2.6190
    -2.6123  -2.6040  -2.6004  -2.5911  -2.5319  -2.5075  -2.5035  -2.4930
    -2.4869  -2.4837  -2.4790  -2.4688  -2.4659  -2.4617  -2.4563  -2.4541
    -2.4323  -2.4315  -2.4222  -2.4173  -2.4139  -2.4117  -2.4101  -2.4088
[...]
     atom   32 type  1   force =    -0.00000080    0.00000015   -0.00000049
     atom   33 type  1   force =     0.00000151   -0.00000400   -0.00000594
     atom   34 type  1   force =    -0.00000199    0.00000279   -0.00000883
     atom   35 type  1   force =     0.00000130    0.00000105   -0.00001178
     atom   36 type  1   force =     0.00000281   -0.00000264   -0.00000903
     atom   37 type  1   force =     0.00000644   -0.00000332   -0.00000852
     atom   38 type  1   force =     0.00000576    0.00000411   -0.00001243
     atom   39 type  1   force =     0.00000926    0.00000334   -0.00000557
     atom   40 type  1   force =    -0.00000309   -0.00000055   -0.00000802
     atom   41 type  1   force =     0.00000117   -0.00000073   -0.00000224
     atom   42 type  1   force =    -0.00000587    0.00001293   -0.00000793
     atom   43 type  1   force =     0.00000248    0.00001294    0.00000399
     atom   44 type  1   force =     0.00000530    0.00000365    0.00000127
     atom   45 type  1   force =     0.00000603   -0.00000075    0.00000558
     atom   46 type  1   force =     0.00001095    0.00001449    0.00001089
     atom   47 type  1   force =     0.00000734    0.00000652    0.00001025
     atom   48 type  1   force =    -0.00000266    0.00000687    0.00000796
     atom   49 type  1   force =     0.00000104   -0.00000027    0.00000879
     atom   50 type  1   force =    -0.00000099   -0.00000579    0.00000532
     atom   51 type  1   force =     0.00000068   -0.00000864    0.00000316
     atom   52 type  1   force =     0.00000395   -0.00000938    0.00000617
     atom   53 type  1   force =     0.00000505   -0.00000321    0.00000638
     atom   54 type  1   force =     0.00000222   -0.00000726   -0.00000087
     atom   55 type  1   force =     0.00000478   -0.00000536   -0.00000381
     atom   56 type  1   force =    -0.00000171   -0.00000519    0.00000112
     atom   57 type  1   force =     0.00000096   -0.00000132   -0.00000084
     atom   58 type  1   force =    -0.00000263   -0.00000337   -0.00000890
     atom   59 type  1   force =     0.00000052   -0.00000355   -0.00000892
     atom   60 type  1   force =     0.00000279   -0.00000229   -0.00000581
     atom   61 type  1   force =     0.00000658   -0.00000023   -0.00000813
     atom   62 type  1   force =     0.00000399   -0.00000380   -0.00000581
     atom   63 type  1   force =     0.00000717   -0.00000428   -0.00000299
     atom   64 type  1   force =    -0.00000471   -0.00000285   -0.00000739
     atom   65 type  1   force =     0.00000046   -0.00000533   -0.00000735
     atom   66 type  1   force =    -0.00000342   -0.00000375    0.00000232
     atom   67 type  1   force =     0.00000024   -0.00000723    0.00000554
     atom   68 type  1   force =     0.00000499   -0.00000738   -0.00000024
     atom   69 type  1   force =     0.00000849   -0.00000736    0.00000171
     atom   70 type  1   force =     0.00000403   -0.00000478    0.00000739
     atom   71 type  1   force =     0.00000405   -0.00000838    0.00000601
     atom   72 type  1   force =    -0.00000311   -0.00001184    0.00000515
     atom   73 type  1   force =     0.00000194   -0.00001095    0.00000844
     atom   74 type  1   force =     0.00000683   -0.00000002    0.00000858
     atom   75 type  1   force =     0.00000475    0.00000489    0.00000801
     atom   76 type  1   force =     0.00000252    0.00000554    0.00000806
     atom   77 type  1   force =    -0.00000066    0.00000563    0.00000739
     atom   78 type  1   force =     0.00000458    0.00000156    0.00000352
     atom   79 type  1   force =     0.00000062    0.00000431    0.00000183
     atom   80 type  1   force =     0.00000529    0.00000631    0.00000426
     atom   81 type  1   force =     0.00000350    0.00000418   -0.00000107
     atom   82 type  1   force =     0.00000720    0.00000252   -0.00000492
     atom   83 type  1   force =     0.00000692    0.00000387   -0.00000711
     atom   84 type  1   force =     0.00000379    0.00000279   -0.00000411
     atom   85 type  1   force =    -0.00000063    0.00000192   -0.00000649
     atom   86 type  1   force =     0.00000536    0.00000097   -0.00000689
     atom   87 type  1   force =     0.00000029    0.00000145   -0.00000758
     atom   88 type  1   force =     0.00000989    0.00000325   -0.00001022
     atom   89 type  1   force =     0.00000835    0.00000358   -0.00000637
     atom   90 type  1   force =     0.00001075   -0.00000149   -0.00000496
     atom   91 type  1   force =     0.00001005    0.00000146   -0.00000038
     atom   92 type  1   force =     0.00000396    0.00000369   -0.00000498
     atom   93 type  1   force =    -0.00000093    0.00000541   -0.00000009
     atom   94 type  1   force =     0.00000362   -0.00000160    0.00000202
     atom   95 type  1   force =    -0.00000009    0.00000223    0.00000711
     atom   96 type  1   force =     0.00001164    0.00000588    0.00000569
     atom   97 type  1   force =     0.00000692    0.00000792    0.00000823
     atom   98 type  1   force =     0.00000644    0.00000710    0.00000953
     atom   99 type  1   force =     0.00000221    0.00000097    0.00000362
     atom  100 type  1   force =     0.00000237    0.00000004    0.00000430
     atom  101 type  1   force =     0.00000096   -0.00000235    0.00000141
     atom  102 type  1   force =     0.00000126    0.00000162    0.00000210
     atom  103 type  1   force =    -0.00000120   -0.00000068   -0.00000184
     atom  104 type  1   force =     0.00000236   -0.00000251    0.00000006
     atom  105 type  1   force =     0.00000303   -0.00000388   -0.00000323
     atom  106 type  1   force =     0.00000588    0.00000144   -0.00000744
     atom  107 type  1   force =     0.00000550   -0.00000060   -0.00000786
     atom  108 type  1   force =     0.00000155   -0.00000289   -0.00000459
     atom  109 type  1   force =    -0.00000021   -0.00000217   -0.00000502
     atom  110 type  1   force =     0.00000390    0.00000119   -0.00000708
     atom  111 type  1   force =    -0.00000090    0.00000032   -0.00000391
     atom  112 type  1   force =     0.00000763   -0.00000089   -0.00000659
     atom  113 type  1   force =     0.00000645   -0.00000228   -0.00000241
     atom  114 type  1   force =     0.00001161    0.00000583   -0.00000210
     atom  115 type  1   force =     0.00000681    0.00000389    0.00000283
     atom  116 type  1   force =     0.00000307    0.00000029    0.00000060
     atom  117 type  1   force =     0.00000030   -0.00000118    0.00000288
     atom  118 type  1   force =     0.00000260    0.00000669    0.00000547
     atom  119 type  1   force =    -0.00000117    0.00000355    0.00000624
     atom  120 type  1   force =     0.00000744    0.00000237    0.00000743
     atom  121 type  1   force =     0.00000332   -0.00000364    0.00000450
     atom  122 type  1   force =     0.00000320   -0.00000641    0.00000504
     atom  123 type  1   force =     0.00000417   -0.00000601    0.00000259
     atom  124 type  1   force =     0.00000362   -0.00000545    0.00000502
     atom  125 type  1   force =     0.00000203   -0.00000197    0.00000670
     atom  126 type  1   force =     0.00000301   -0.00000509   -0.00000028
     atom  127 type  1   force =     0.00000236   -0.00000157   -0.00000218
     atom  128 type  1   force =     0.00000405   -0.00000448    0.00000181
     atom  129 type  1   force =     0.00000511    0.00000083    0.00000085
     atom  130 type  1   force =     0.00000543   -0.00000480   -0.00000571
     atom  131 type  1   force =     0.00000648   -0.00000252   -0.00000489
     atom  132 type  1   force =     0.00000398   -0.00000081   -0.00000239
     atom  133 type  1   force =     0.00000091    0.00000078   -0.00000459
     atom  134 type  1   force =     0.00000376   -0.00000202   -0.00000437
     atom  135 type  1   force =     0.00000068   -0.00000206   -0.00000341
     atom  136 type  1   force =     0.00000855   -0.00000268   -0.00000585
     atom  137 type  1   force =     0.00000855   -0.00000182   -0.00000571
     atom  138 type  1   force =     0.00000805   -0.00000370    0.00000164
     atom  139 type  1   force =     0.00000668   -0.00000658    0.00000207
     atom  140 type  1   force =     0.00000483   -0.00000426   -0.00000208
     atom  141 type  1   force =    -0.00000016   -0.00000467   -0.00000098
     atom  142 type  1   force =     0.00000379   -0.00000455    0.00000392
     atom  143 type  1   force =     0.00000115   -0.00000823    0.00000445
     atom  144 type  1   force =     0.00000651   -0.00000753    0.00000454
     atom  145 type  1   force =     0.00000610   -0.00000499    0.00000509
     atom  146 type  1   force =    -0.00000130   -0.00000208    0.00000842
     atom  147 type  1   force =    -0.00000877    0.00000167    0.00000976
     atom  148 type  1   force =    -0.00001277    0.00000735    0.00001476
     atom  149 type  1   force =    -0.00000621    0.00000774    0.00001217
     atom  150 type  1   force =    -0.00000816    0.00000098    0.00000672
     atom  151 type  1   force =    -0.00000785    0.00000290   -0.00000066
     atom  152 type  1   force =    -0.00000355    0.00000440    0.00000568
     atom  153 type  1   force =    -0.00000599    0.00000201   -0.00000046
     atom  154 type  1   force =    -0.00000215    0.00000187   -0.00000361
     atom  155 type  1   force =    -0.00000773    0.00000214   -0.00000823
     atom  156 type  1   force =    -0.00000814    0.00000303   -0.00000514
     atom  157 type  1   force =    -0.00000757    0.00000213   -0.00001212
     atom  158 type  1   force =    -0.00001100    0.00000008   -0.00000895
     atom  159 type  1   force =    -0.00001142   -0.00000102   -0.00001263
     atom  160 type  1   force =    -0.00000452    0.00000189   -0.00000822
     atom  161 type  1   force =    -0.00001076    0.00000289   -0.00000817
     atom  162 type  1   force =    -0.00000565   -0.00000093   -0.00000599
     atom  163 type  1   force =    -0.00001244   -0.00000002   -0.00000323
     atom  164 type  1   force =    -0.00001545    0.00000281   -0.00000826
     atom  165 type  1   force =    -0.00001628    0.00001096   -0.00000237
     atom  166 type  1   force =    -0.00001475   -0.00000815    0.00000243
     atom  167 type  1   force =    -0.00001011   -0.00000116    0.00001247
     atom  168 type  1   force =    -0.00000816    0.00000502    0.00000325
     atom  169 type  1   force =    -0.00001018    0.00000880    0.00000889
     atom  170 type  1   force =    -0.00000472    0.00000563    0.00000711
     atom  171 type  1   force =    -0.00000503    0.00000297    0.00000479
     atom  172 type  1   force =    -0.00000653    0.00000266    0.00000565
     atom  173 type  1   force =    -0.00000346   -0.00000231    0.00000426
     atom  174 type  1   force =    -0.00000525    0.00000331    0.00000340
     atom  175 type  1   force =    -0.00000357    0.00000007   -0.00000350
     atom  176 type  1   force =    -0.00000255   -0.00000023   -0.00000079
     atom  177 type  1   force =    -0.00000336   -0.00000181   -0.00000438
     atom  178 type  1   force =    -0.00000352   -0.00000016   -0.00000433
     atom  179 type  1   force =    -0.00000585   -0.00000068   -0.00000677
     atom  180 type  1   force =    -0.00000519   -0.00000203   -0.00000665
     atom  181 type  1   force =    -0.00000507   -0.00000334   -0.00000777
     atom  182 type  1   force =    -0.00000905    0.00000303   -0.00000945
     atom  183 type  1   force =    -0.00000789    0.00000453   -0.00000628
     atom  184 type  1   force =    -0.00000469   -0.00000126   -0.00000544
     atom  185 type  1   force =    -0.00000713   -0.00000044   -0.00000123
     atom  186 type  1   force =    -0.00000637    0.00000382   -0.00000313
     atom  187 type  1   force =    -0.00000939    0.00000700    0.00000257
     atom  188 type  1   force =    -0.00000929    0.00000269    0.00000048
     atom  189 type  1   force =    -0.00000751    0.00000152    0.00000597
     atom  190 type  1   force =    -0.00001293    0.00000979    0.00000681
     atom  191 type  1   force =    -0.00000676    0.00001027    0.00001027
     atom  192 type  1   force =    -0.00000271    0.00000328    0.00000474
     atom  193 type  1   force =    -0.00000686   -0.00000028    0.00000567
     atom  194 type  1   force =    -0.00000108   -0.00000464    0.00000407
     atom  195 type  1   force =    -0.00000540   -0.00000501    0.00000241
     atom  196 type  1   force =    -0.00000845   -0.00000950    0.00000712
     atom  197 type  1   force =    -0.00000717   -0.00000528    0.00000722
     atom  198 type  1   force =    -0.00000500   -0.00000589   -0.00000017
     atom  199 type  1   force =    -0.00000522   -0.00000608   -0.00000269
     atom  200 type  1   force =    -0.00000353   -0.00000139    0.00000171
     atom  201 type  1   force =    -0.00000671    0.00000009    0.00000046
     atom  202 type  1   force =    -0.00000276   -0.00000170   -0.00000484
     atom  203 type  1   force =    -0.00000658   -0.00000196   -0.00000541
     atom  204 type  1   force =    -0.00000868   -0.00000121   -0.00000462
     atom  205 type  1   force =    -0.00000763   -0.00000064   -0.00000791
     atom  206 type  1   force =    -0.00000875   -0.00000158   -0.00000486
     atom  207 type  1   force =    -0.00000801   -0.00000361   -0.00000293
     atom  208 type  1   force =    -0.00000441   -0.00000127   -0.00000449
     atom  209 type  1   force =    -0.00000888   -0.00000204   -0.00000740
     atom  210 type  1   force =    -0.00000290   -0.00000296    0.00000136
     atom  211 type  1   force =    -0.00000713   -0.00000595    0.00000199
     atom  212 type  1   force =    -0.00000947   -0.00000709   -0.00000181
     atom  213 type  1   force =    -0.00000832   -0.00001013   -0.00000024
     atom  214 type  1   force =    -0.00000718   -0.00000495    0.00000430
     atom  215 type  1   force =    -0.00000558   -0.00000902    0.00000613
     atom  216 type  1   force =    -0.00000259   -0.00000680    0.00000238
     atom  217 type  1   force =    -0.00000863   -0.00000616    0.00000561
     atom  218 type  2   force =    -0.00000091   -0.00000129    0.00000293
     atom  219 type  2   force =    -0.00000157   -0.00000283    0.00000186
     atom  220 type  2   force =    -0.00000011   -0.00000093   -0.00000093
     atom  221 type  2   force =    -0.00000132    0.00000004    0.00000136
     atom  222 type  2   force =    -0.00000018   -0.00000132    0.00000117
     atom  223 type  2   force =    -0.00000080    0.00000125   -0.00000224
     atom  224 type  2   force =     0.00000052    0.00000287    0.00000003

     Total force =     0.070246     Total SCF correction =     0.000153


     Computing stress (Cartesian axis) and pressure

          total   stress  (Ry/bohr**3)                   (kbar)     P=   15.53
   0.00011023   0.00000161  -0.00000109         16.22      0.24     -0.16
   0.00000161   0.00009884  -0.00000170          0.24     14.54     -0.25
  -0.00000109  -0.00000170   0.00010767         -0.16     -0.25     15.84

     kinetic stress (kbar)   2302.10     -0.44     -0.50
                               -0.44   2301.65      0.33
                               -0.50      0.33   2301.93

     local   stress (kbar)  -1221.03      2.17     -7.44
                                2.17  -1208.63      2.96
                               -7.44      2.96  -1221.62

     nonloc. stress (kbar)   2596.89     -1.63      0.52
                               -1.63   2599.31      0.46
                                0.52      0.46   2597.73

     hartree stress (kbar)    206.35      0.66      1.30
                                0.66    199.25     -1.16
                                1.30     -1.16    205.76

     exc-cor stress (kbar)   -813.40      0.07      0.01
                                0.07   -813.40     -0.03
                                0.01     -0.03   -813.42

     corecor stress (kbar)      0.00      0.00      0.00
                                0.00      0.00      0.00
                                0.00      0.00      0.00

     ewald   stress (kbar)  -3054.69     -0.59      5.95
                               -0.59  -3063.65     -2.81
                                5.95     -2.81  -3054.53

     hubbard stress (kbar)      0.00      0.00      0.00
                                0.00      0.00      0.00
                                0.00      0.00      0.00

     london  stress (kbar)      0.00      0.00      0.00
                                0.00      0.00      0.00
                                0.00      0.00      0.00

     DFT-D3  stress (kbar)      0.00      0.00      0.00
                                0.00      0.00      0.00
                                0.00      0.00      0.00

     XDM     stress (kbar)      0.00      0.00      0.00
                                0.00      0.00      0.00
                                0.00      0.00      0.00

     dft-nl  stress (kbar)      0.00      0.00      0.00
                                0.00      0.00      0.00
                                0.00      0.00      0.00

     TS-vdW  stress (kbar)      0.00      0.00      0.00
                                0.00      0.00      0.00
                                0.00      0.00      0.00



     Writing output data file interstitial_optimize1.save

     init_run     :    302.11s CPU    313.64s WALL (       1 calls)
     electrons    :  11365.10s CPU  11848.48s WALL (       1 calls)
     forces       :     84.69s CPU     85.36s WALL (       1 calls)
     stress       :    887.59s CPU    891.22s WALL (       1 calls)

     Called by init_run:
     wfcinit      :    298.47s CPU    309.91s WALL (       1 calls)
     wfcinit:atom :      0.90s CPU      1.77s WALL (       8 calls)
     wfcinit:wfcr :    285.74s CPU    295.46s WALL (       8 calls)
     potinit      :      0.45s CPU      0.49s WALL (       1 calls)

     Called by electrons:
     c_bands      :  10505.42s CPU  10939.26s WALL (      22 calls)
     sum_band     :    852.29s CPU    894.85s WALL (      22 calls)
     v_of_rho     :      6.06s CPU      6.36s WALL (      22 calls)
     v_h          :      0.39s CPU      0.40s WALL (      22 calls)
     v_xc         :      5.68s CPU      5.96s WALL (      22 calls)
     mix_rho      :      1.34s CPU      1.57s WALL (      22 calls)

     Called by c_bands:
     init_us_2    :     35.31s CPU     37.71s WALL (     376 calls)
     cegterg      :  10410.25s CPU  10786.55s WALL (     176 calls)

     Called by sum_band:

     Called by *egterg:
     h_psi        :   5861.94s CPU   6068.23s WALL (    1006 calls)
     g_psi        :     13.77s CPU     13.90s WALL (     822 calls)
     cdiaghg      :   1691.72s CPU   1705.55s WALL (     990 calls)
     cegterg:over :   1278.64s CPU   1295.65s WALL (     822 calls)
     cegterg:upda :    775.54s CPU    787.50s WALL (     822 calls)
     cegterg:last :    453.63s CPU    460.55s WALL (     176 calls)

     Called by h_psi:
     h_psi:pot    :   5835.69s CPU   6038.81s WALL (    1006 calls)
     h_psi:calbec :   1065.07s CPU   1081.70s WALL (    1006 calls)
     vloc_psi     :   3763.29s CPU   3941.29s WALL (    1006 calls)
     add_vuspsi   :   1007.32s CPU   1015.81s WALL (    1006 calls)

     General routines
     calbec       :   1224.65s CPU   1241.70s WALL (    1046 calls)
     fft          :      3.58s CPU      3.92s WALL (     251 calls)
     fftw         :   4081.42s CPU   4290.97s WALL (  533218 calls)

     Parallel routines
     fft_scatt_xy :    574.31s CPU    579.95s WALL (  533469 calls)
     fft_scatt_yz :    853.55s CPU   1031.04s WALL (  533469 calls)

     PWSCF        :     3h30m CPU        3h39m WALL


   This run was terminated on:  12:29:42   7Nov2020            

=------------------------------------------------------------------------------=
   JOB DONE.
=------------------------------------------------------------------------------=
