
     Program PWSCF v.6.2 (svn rev. 14038) starts on  7Nov2020 at  8:54:27 

     This program is part of the open-source Quantum ESPRESSO suite
     for quantum simulation of materials; please cite
         "P. Giannozzi et al., J. Phys.:Condens. Matter 21 395502 (2009);
         "P. Giannozzi et al., J. Phys.:Condens. Matter 29 465901 (2017);
          URL http://www.quantum-espresso.org", 
     in publications or presentations arising from this work. More details at
     http://www.quantum-espresso.org/quote

     Parallel version (MPI), running on     8 processors

     MPI processes distributed on     1 nodes
     R & G space division:  proc/nbgrp/npool/nimage =       8
     Waiting for input...
     Reading input from standard input
Warning: card &IONS ignored
Warning: card / ignored

     Current dimensions of program PWSCF are:
     Max number of different atomic species (ntypx) = 10
     Max number of k-points (npk) =  40000
     Max angular momentum in pseudopotentials (lmaxx) =  3

     Subspace diagonalization in iterative solution of the eigenvalue problem:
     a serial algorithm will be used


     Parallelization info
     --------------------
     sticks:   dense  smooth     PW     G-vecs:    dense   smooth      PW
     Min        1600    1600    423               136410   136410   18511
     Max        1601    1601    424               136415   136415   18512
     Sum       12801   12801   3389              1091287  1091287  148093



     bravais-lattice index     =            0
     lattice parameter (alat)  =      30.9637  a.u.
     unit-cell volume          =   29686.4345 (a.u.)^3
     number of atoms/cell      =          222
     number of atomic types    =            2
     number of electrons       =       873.00
     number of Kohn-Sham states=          524
     kinetic-energy cutoff     =      42.0000  Ry
     charge density cutoff     =     168.0000  Ry
     convergence threshold     =      1.0E-08
     mixing beta               =       0.3000
     number of iterations used =            8  plain     mixing
     Exchange-correlation      = SLA-PW-PBX-PBC ( 1  4  3  4 0 0)

     celldm(1)=  30.963688  celldm(2)=   0.000000  celldm(3)=   0.000000
     celldm(4)=   0.000000  celldm(5)=   0.000000  celldm(6)=   0.000000

     crystal axes: (cart. coord. in units of alat)
               a(1) = (   1.000000   0.000000   0.000000 )  
               a(2) = (   0.000000   1.000000   0.000000 )  
               a(3) = (   0.000000   0.000000   1.000000 )  

     reciprocal axes: (cart. coord. in units 2 pi/alat)
               b(1) = (  1.000000  0.000000  0.000000 )  
               b(2) = (  0.000000  1.000000  0.000000 )  
               b(3) = (  0.000000  0.000000  1.000000 )  


     PseudoPot. # 1 for Si read from file:
     ./Si.pbe-hgh.UPF
     MD5 check sum: 9a9f0f6e09139bfdb36b03ff6bc35900
     Pseudo is Norm-conserving, Zval =  4.0
     Generated in analytical, separable form
     Using radial grid of 1141 points,  3 beta functions with: 
                l(1) =   0
                l(2) =   0
                l(3) =   1

     PseudoPot. # 2 for H  read from file:
     ./H.pbe-hgh.UPF
     MD5 check sum: 5f350582108a937bec95f27f5610ab08
     Pseudo is Norm-conserving, Zval =  1.0
     Generated in analytical, separable form
     Using radial grid of  929 points,  0 beta functions with: 

     atomic species   valence    mass     pseudopotential
        Si             4.00    28.08000     Si( 1.00)
        H              1.00     1.00784     H ( 1.00)

     No symmetry found


                                    s                        frac. trans.

      isym =  1     identity                                     

 cryst.   s( 1) = (     1          0          0      )
                  (     0          1          0      )
                  (     0          0          1      )

 cart.    s( 1) = (  1.0000000  0.0000000  0.0000000 )
                  (  0.0000000  1.0000000  0.0000000 )
                  (  0.0000000  0.0000000  1.0000000 )


   Cartesian axes

     site n.     atom                  positions (alat units)
         1           Si  tau(   1) = (   0.9026980   0.9178830   0.9157130  )
         2           Si  tau(   2) = (   0.0034603   0.0025598   0.0017324  )
         3           Si  tau(   3) = (   0.0866572   0.0862041   0.0867018  )
         4           Si  tau(   4) = (   0.1679360   0.1669150   1.0000500  )
         5           Si  tau(   5) = (   0.2508260   0.2506450   0.0824382  )
         6           Si  tau(   6) = (   0.1675170   0.9990370   0.1674160  )
         7           Si  tau(   7) = (   0.2505700   0.0822188   0.2504160  )
         8           Si  tau(   8) = (   0.9993740   0.1672740   0.1674440  )
         9           Si  tau(   9) = (   0.0822889   0.2506040   0.2505800  )
        10           Si  tau(  10) = (   0.0006029   0.0003218   0.3338710  )
        11           Si  tau(  11) = (   0.0846273   0.0841496   0.4158500  )
        12           Si  tau(  12) = (   0.1689150   0.1688130   0.3312760  )
        13           Si  tau(  13) = (   0.2501820   0.2502400   0.4176290  )
        14           Si  tau(  14) = (   0.1672900   0.0004898   0.4995600  )
        15           Si  tau(  15) = (   0.2503450   0.0834787   0.5833490  )
        16           Si  tau(  16) = (   0.0004283   0.1667360   0.4989140  )
        17           Si  tau(  17) = (   0.0836646   0.2495080   0.5828000  )
        18           Si  tau(  18) = (   0.0023644   0.0016102   0.6651150  )
        19           Si  tau(  19) = (   0.0863874   0.0816169   0.7490110  )
        20           Si  tau(  20) = (   0.1673380   0.1671280   0.6665890  )
        21           Si  tau(  21) = (   0.2504450   0.2502480   0.7502820  )
        22           Si  tau(  22) = (   0.1693330   0.0000862   0.8331310  )
        23           Si  tau(  23) = (   0.2513270   0.0837798   0.9167380  )
        24           Si  tau(  24) = (   0.0090112   0.1756050   0.8241700  )
        25           Si  tau(  25) = (   0.0848008   0.2518270   0.9191300  )
        26           Si  tau(  26) = (   0.0001804   0.3341910   0.0012840  )
        27           Si  tau(  27) = (   0.0845801   0.4162470   0.0844794  )
        28           Si  tau(  28) = (   0.1672620   0.4994170   0.0002498  )
        29           Si  tau(  29) = (   0.2502430   0.5833140   0.0832012  )
        30           Si  tau(  30) = (   0.1688360   0.3314090   0.1688200  )
        31           Si  tau(  31) = (   0.2500550   0.4176900   0.2503570  )
        32           Si  tau(  32) = (   0.0004960   0.4997500   0.1667910  )
        33           Si  tau(  33) = (   0.0835080   0.5833930   0.2500020  )
        34           Si  tau(  34) = (   0.9996580   0.3340340   0.3338600  )
        35           Si  tau(  35) = (   0.0827608   0.4174410   0.4171340  )
        36           Si  tau(  36) = (   0.1664050   0.5003770   0.3337600  )
        37           Si  tau(  37) = (   0.2503880   0.5831890   0.4167150  )
        38           Si  tau(  38) = (   0.1664670   0.3339340   0.4999960  )
        39           Si  tau(  39) = (   0.2502870   0.4166210   0.5832740  )
        40           Si  tau(  40) = (   0.9984490   0.5012850   0.5016720  )
        41           Si  tau(  41) = (   0.0849356   0.5827520   0.5825660  )
        42           Si  tau(  42) = (   0.0019790   0.3320830   0.6683250  )
        43           Si  tau(  43) = (   0.0841917   0.4173100   0.7506000  )
        44           Si  tau(  44) = (   0.1678330   0.5001780   0.6668370  )
        45           Si  tau(  45) = (   0.2511990   0.5832890   0.7501800  )
        46           Si  tau(  46) = (   0.1668960   0.3333700   0.8335320  )
        47           Si  tau(  47) = (   0.2504420   0.4168170   0.9163430  )
        48           Si  tau(  48) = (   0.0004006   0.5000790   0.8339690  )
        49           Si  tau(  49) = (   0.0843208   0.5828980   0.9169830  )
        50           Si  tau(  50) = (   0.0026968   0.6654670   0.0021828  )
        51           Si  tau(  51) = (   0.0847353   0.7502970   0.0841393  )
        52           Si  tau(  52) = (   0.1688700   0.8326020   0.0010639  )
        53           Si  tau(  53) = (   0.2513400   0.9167680   0.0837002  )
        54           Si  tau(  54) = (   0.1674140   0.6665010   0.1671200  )
        55           Si  tau(  55) = (   0.2504130   0.7500020   0.2504310  )
        56           Si  tau(  56) = (   0.0007765   0.8325390   0.1671800  )
        57           Si  tau(  57) = (   0.0833626   0.9165320   0.2504820  )
        58           Si  tau(  58) = (   0.0005208   0.6666680   0.3333780  )
        59           Si  tau(  59) = (   0.0838390   0.7497080   0.4168850  )
        60           Si  tau(  60) = (   0.1669240   0.8332590   0.3336160  )
        61           Si  tau(  61) = (   0.2503390   0.9165810   0.4168690  )
        62           Si  tau(  62) = (   0.1677790   0.6668650   0.4999640  )
        63           Si  tau(  63) = (   0.2510720   0.7500660   0.5831960  )
        64           Si  tau(  64) = (   0.0005840   0.8337480   0.4994920  )
        65           Si  tau(  65) = (   0.0843683   0.9166630   0.5826450  )
        66           Si  tau(  66) = (   0.9975690   0.6634040   0.6632840  )
        67           Si  tau(  67) = (   0.0858032   0.7459020   0.7459360  )
        68           Si  tau(  68) = (   0.1676370   0.8331130   0.6660000  )
        69           Si  tau(  69) = (   0.2510830   0.9161550   0.7496270  )
        70           Si  tau(  70) = (   0.1676050   0.6660190   0.8332080  )
        71           Si  tau(  71) = (   0.2507980   0.7497870   0.9163610  )
        72           Si  tau(  72) = (   0.0059433   0.8317330   0.8318240  )
        73           Si  tau(  73) = (   0.0873217   0.9170100   0.9174840  )
        74           Si  tau(  74) = (   0.3343260   0.0005754   0.0005231  )
        75           Si  tau(  75) = (   0.4161910   0.0844656   0.0845225  )
        76           Si  tau(  76) = (   0.4996790   0.1669640   0.0005176  )
        77           Si  tau(  77) = (   0.5835050   0.2501730   0.0833279  )
        78           Si  tau(  78) = (   0.4996970   0.0003706   0.1669510  )
        79           Si  tau(  79) = (   0.5836230   0.0832616   0.2500260  )
        80           Si  tau(  80) = (   0.3315560   0.1687410   0.1688220  )
        81           Si  tau(  81) = (   0.4177440   0.2501460   0.2501760  )
        82           Si  tau(  82) = (   0.3337830   0.9994940   0.3337040  )
        83           Si  tau(  83) = (   0.4164430   0.0837201   0.4163380  )
        84           Si  tau(  84) = (   0.5005570   0.1666410   0.3334030  )
        85           Si  tau(  85) = (   0.5832260   0.2504120   0.4166400  )
        86           Si  tau(  86) = (   0.4994410   0.0000417   0.4991350  )
        87           Si  tau(  87) = (   0.5819600   0.0837712   0.5818760  )
        88           Si  tau(  88) = (   0.3335210   0.1666610   0.5004160  )
        89           Si  tau(  89) = (   0.4167460   0.2502490   0.5832280  )
        90           Si  tau(  90) = (   0.3337080   0.0000828   0.6663140  )
        91           Si  tau(  91) = (   0.4167970   0.0835569   0.7497330  )
        92           Si  tau(  92) = (   0.4999120   0.1670020   0.6664170  )
        93           Si  tau(  93) = (   0.5821950   0.2516080   0.7496640  )
        94           Si  tau(  94) = (   0.4996950   0.0002280   0.8333440  )
        95           Si  tau(  95) = (   0.5825370   0.0838626   0.9167110  )
        96           Si  tau(  96) = (   0.3342550   0.1671760   0.8333710  )
        97           Si  tau(  97) = (   0.4172480   0.2505410   0.9167710  )
        98           Si  tau(  98) = (   0.3338590   0.3339080   0.9994650  )
        99           Si  tau(  99) = (   0.4164940   0.4164620   0.0837728  )
       100           Si  tau( 100) = (   0.4995840   0.4991910   0.0000688  )
       101           Si  tau( 101) = (   0.5820800   0.5820240   0.0837446  )
       102           Si  tau( 102) = (   0.5005270   0.3334950   0.1667270  )
       103           Si  tau( 103) = (   0.5833290   0.4167460   0.2504570  )
       104           Si  tau( 104) = (   0.3334570   0.5004520   0.1667660  )
       105           Si  tau( 105) = (   0.4167370   0.5833130   0.2502930  )
       106           Si  tau( 106) = (   0.3318480   0.3317880   0.3317780  )
       107           Si  tau( 107) = (   0.4160590   0.4160980   0.4160790  )
       108           Si  tau( 108) = (   0.4997530   0.4998730   0.3336540  )
       109           Si  tau( 109) = (   0.5830200   0.5834350   0.4168320  )
       110           Si  tau( 110) = (   0.4997250   0.3336280   0.4997940  )
       111           Si  tau( 111) = (   0.5829080   0.4168400   0.5833810  )
       112           Si  tau( 112) = (   0.3337090   0.4998010   0.4998970  )
       113           Si  tau( 113) = (   0.4169000   0.5833450   0.5833160  )
       114           Si  tau( 114) = (   0.3336080   0.3336030   0.6666270  )
       115           Si  tau( 115) = (   0.4165670   0.4173310   0.7498950  )
       116           Si  tau( 116) = (   0.5001990   0.5004590   0.6668580  )
       117           Si  tau( 117) = (   0.5835110   0.5837270   0.7504490  )
       118           Si  tau( 118) = (   0.4996530   0.3344890   0.8332930  )
       119           Si  tau( 119) = (   0.5837890   0.4170180   0.9165000  )
       120           Si  tau( 120) = (   0.3338480   0.5001750   0.8336060  )
       121           Si  tau( 121) = (   0.4171140   0.5832750   0.9169170  )
       122           Si  tau( 122) = (   0.3336970   0.6664920   1.0000100  )
       123           Si  tau( 123) = (   0.4167280   0.7497970   0.0837177  )
       124           Si  tau( 124) = (   0.4997310   0.8333230   0.0003312  )
       125           Si  tau( 125) = (   0.5827220   0.9166880   0.0838665  )
       126           Si  tau( 126) = (   0.4999130   0.6664430   0.1670140  )
       127           Si  tau( 127) = (   0.5822730   0.7496730   0.2515460  )
       128           Si  tau( 128) = (   0.3339410   0.8332600   0.1672840  )
       129           Si  tau( 129) = (   0.4171660   0.9166090   0.2504760  )
       130           Si  tau( 130) = (   0.3335870   0.6665980   0.3336080  )
       131           Si  tau( 131) = (   0.4165530   0.7498570   0.4172200  )
       132           Si  tau( 132) = (   0.4996670   0.8332710   0.3344330  )
       133           Si  tau( 133) = (   0.5836910   0.9165360   0.4170300  )
       134           Si  tau( 134) = (   0.5002230   0.6668820   0.5004060  )
       135           Si  tau( 135) = (   0.5836290   0.7504430   0.5836550  )
       136           Si  tau( 136) = (   0.3337890   0.8334980   0.5001300  )
       137           Si  tau( 137) = (   0.4170870   0.9168310   0.5832540  )
       138           Si  tau( 138) = (   0.3341430   0.6668720   0.6668420  )
       139           Si  tau( 139) = (   0.4177190   0.7500930   0.7501180  )
       140           Si  tau( 140) = (   0.5006720   0.8339820   0.6669210  )
       141           Si  tau( 141) = (   0.5838570   0.9178570   0.7501830  )
       142           Si  tau( 142) = (   0.5006080   0.6668880   0.8339980  )
       143           Si  tau( 143) = (   0.5838140   0.7501720   0.9178250  )
       144           Si  tau( 144) = (   0.3342310   0.8331920   0.8332960  )
       145           Si  tau( 145) = (   0.4169370   0.9168450   0.9169110  )
       146           Si  tau( 146) = (   0.6655990   0.0030467   0.0029655  )
       147           Si  tau( 147) = (   0.7509960   0.0848003   0.0844484  )
       148           Si  tau( 148) = (   0.8338900   0.1664930   0.9992170  )
       149           Si  tau( 149) = (   0.9166800   0.2499910   0.0831864  )
       150           Si  tau( 150) = (   0.8330200   0.0002474   0.1672010  )
       151           Si  tau( 151) = (   0.9169390   0.0831484   0.2504900  )
       152           Si  tau( 152) = (   0.6667570   0.1674150   0.1672110  )
       153           Si  tau( 153) = (   0.7500070   0.2504880   0.2504610  )
       154           Si  tau( 154) = (   0.6667410   0.0002301   0.3338000  )
       155           Si  tau( 155) = (   0.7498660   0.0839351   0.4168580  )
       156           Si  tau( 156) = (   0.8333020   0.1667650   0.3332920  )
       157           Si  tau( 157) = (   0.9165230   0.2501580   0.4164600  )
       158           Si  tau( 158) = (   0.8334590   0.0005733   0.4997890  )
       159           Si  tau( 159) = (   0.9171110   0.0839624   0.5827290  )
       160           Si  tau( 160) = (   0.6662870   0.1671640   0.4997650  )
       161           Si  tau( 161) = (   0.7493500   0.2517870   0.5820090  )
       162           Si  tau( 162) = (   0.6652120   0.0014678   0.6652350  )
       163           Si  tau( 163) = (   0.7436540   0.0928035   0.7434710  )
       164           Si  tau( 164) = (   0.8338950   0.1697010   0.6637930  )
       165           Si  tau( 165) = (   0.9139310   0.2524280   0.7493230  )
       166           Si  tau( 166) = (   0.8216050   0.9993180   0.8188500  )
       167           Si  tau( 167) = (   0.9192700   0.0854402   0.9137920  )
       168           Si  tau( 168) = (   0.6643360   0.1698690   0.8345160  )
       169           Si  tau( 169) = (   0.7501320   0.2508550   0.9169850  )
       170           Si  tau( 170) = (   0.6667360   0.3337520   0.0003048  )
       171           Si  tau( 171) = (   0.7498870   0.4168380   0.0839306  )
       172           Si  tau( 172) = (   0.8334530   0.4997170   0.0004975  )
       173           Si  tau( 173) = (   0.9168780   0.5829440   0.0837432  )
       174           Si  tau( 174) = (   0.8333380   0.3332040   0.1666780  )
       175           Si  tau( 175) = (   0.9167370   0.4166010   0.2498030  )
       176           Si  tau( 176) = (   0.6664090   0.4999090   0.1671260  )
       177           Si  tau( 177) = (   0.7495340   0.5822520   0.2516010  )
       178           Si  tau( 178) = (   0.6668080   0.3337100   0.3337850  )
       179           Si  tau( 179) = (   0.7500600   0.4170390   0.4171560  )
       180           Si  tau( 180) = (   0.8333540   0.4992430   0.3335210  )
       181           Si  tau( 181) = (   0.9168490   0.5830440   0.4158470  )
       182           Si  tau( 182) = (   0.8337220   0.3338750   0.4996010  )
       183           Si  tau( 183) = (   0.9179580   0.4150600   0.5838880  )
       184           Si  tau( 184) = (   0.6659710   0.5000460   0.5000690  )
       185           Si  tau( 185) = (   0.7488420   0.5833590   0.5835020  )
       186           Si  tau( 186) = (   0.6666470   0.3342860   0.6668100  )
       187           Si  tau( 187) = (   0.7504630   0.4183070   0.7490650  )
       188           Si  tau( 188) = (   0.8356400   0.5016410   0.6642290  )
       189           Si  tau( 189) = (   0.9167750   0.5827840   0.7507560  )
       190           Si  tau( 190) = (   0.8322070   0.3350640   0.8336580  )
       191           Si  tau( 191) = (   0.9170320   0.4167780   0.9170350  )
       192           Si  tau( 192) = (   0.6673110   0.5008360   0.8334950  )
       193           Si  tau( 193) = (   0.7504260   0.5839920   0.9178690  )
       194           Si  tau( 194) = (   0.6654140   0.6653910   0.0014725  )
       195           Si  tau( 195) = (   0.7442170   0.7436990   0.0925139  )
       196           Si  tau( 196) = (   0.8230450   0.8197880  -0.0001776  )
       197           Si  tau( 197) = (   0.9170260   0.9164450   0.0842228  )
       198           Si  tau( 198) = (   0.8345670   0.6643410   0.1700580  )
       199           Si  tau( 199) = (   0.9169700   0.7502920   0.2510940  )
       200           Si  tau( 200) = (   0.6646300   0.8344110   0.1697960  )
       201           Si  tau( 201) = (   0.7502490   0.9167500   0.2511320  )
       202           Si  tau( 202) = (   0.6667610   0.6668420   0.3342030  )
       203           Si  tau( 203) = (   0.7505950   0.7493400   0.4179270  )
       204           Si  tau( 204) = (   0.8332900   0.8331460   0.3344810  )
       205           Si  tau( 205) = (   0.9169210   0.9170620   0.4168270  )
       206           Si  tau( 206) = (   0.8351400   0.6645410   0.5018270  )
       207           Si  tau( 207) = (   0.9169250   0.7508810   0.5825710  )
       208           Si  tau( 208) = (   0.6674240   0.8336050   0.5007140  )
       209           Si  tau( 209) = (   0.7504700   0.9179350   0.5840900  )
       210           Si  tau( 210) = (   0.6666780   0.6673460   0.6674220  )
       211           Si  tau( 211) = (   0.7511820   0.7504460   0.7505080  )
       212           Si  tau( 212) = (   0.8339510   0.8337930   0.6666580  )
       213           Si  tau( 213) = (   0.9211280   0.9161500   0.7474120  )
       214           Si  tau( 214) = (   0.8340050   0.6666740   0.8339240  )
       215           Si  tau( 215) = (   0.9213310   0.7474810   0.9162190  )
       216           Si  tau( 216) = (   0.6669370   0.8334970   0.8334430  )
       217           Si  tau( 217) = (   0.7460240   0.9186500   0.9189970  )
       218           H   tau( 218) = (   0.7689970   0.9326750   0.7705660  )
       219           H   tau( 219) = (   0.7701830   0.7721120   0.9329780  )
       220           H   tau( 220) = (   0.2487490   0.2490380   0.2493060  )
       221           H   tau( 221) = (   0.0644753   0.2377230   0.7578400  )
       222           H   tau( 222) = (   0.9163160   0.5838890   0.5831400  )

   Crystallographic axes

     site n.     atom                  positions (cryst. coord.)
         1           Si  tau(   1) = (  0.9026980  0.9178830  0.9157130  )
         2           Si  tau(   2) = (  0.0034603  0.0025598  0.0017324  )
         3           Si  tau(   3) = (  0.0866572  0.0862041  0.0867018  )
         4           Si  tau(   4) = (  0.1679360  0.1669150  1.0000500  )
         5           Si  tau(   5) = (  0.2508260  0.2506450  0.0824382  )
         6           Si  tau(   6) = (  0.1675170  0.9990370  0.1674160  )
         7           Si  tau(   7) = (  0.2505700  0.0822188  0.2504160  )
         8           Si  tau(   8) = (  0.9993740  0.1672740  0.1674440  )
         9           Si  tau(   9) = (  0.0822889  0.2506040  0.2505800  )
        10           Si  tau(  10) = (  0.0006029  0.0003218  0.3338710  )
        11           Si  tau(  11) = (  0.0846273  0.0841496  0.4158500  )
        12           Si  tau(  12) = (  0.1689150  0.1688130  0.3312760  )
        13           Si  tau(  13) = (  0.2501820  0.2502400  0.4176290  )
        14           Si  tau(  14) = (  0.1672900  0.0004898  0.4995600  )
        15           Si  tau(  15) = (  0.2503450  0.0834787  0.5833490  )
        16           Si  tau(  16) = (  0.0004283  0.1667360  0.4989140  )
        17           Si  tau(  17) = (  0.0836646  0.2495080  0.5828000  )
        18           Si  tau(  18) = (  0.0023644  0.0016102  0.6651150  )
        19           Si  tau(  19) = (  0.0863874  0.0816169  0.7490110  )
        20           Si  tau(  20) = (  0.1673380  0.1671280  0.6665890  )
        21           Si  tau(  21) = (  0.2504450  0.2502480  0.7502820  )
        22           Si  tau(  22) = (  0.1693330  0.0000862  0.8331310  )
        23           Si  tau(  23) = (  0.2513270  0.0837798  0.9167380  )
        24           Si  tau(  24) = (  0.0090112  0.1756050  0.8241700  )
        25           Si  tau(  25) = (  0.0848008  0.2518270  0.9191300  )
        26           Si  tau(  26) = (  0.0001804  0.3341910  0.0012840  )
        27           Si  tau(  27) = (  0.0845801  0.4162470  0.0844794  )
        28           Si  tau(  28) = (  0.1672620  0.4994170  0.0002498  )
        29           Si  tau(  29) = (  0.2502430  0.5833140  0.0832012  )
        30           Si  tau(  30) = (  0.1688360  0.3314090  0.1688200  )
        31           Si  tau(  31) = (  0.2500550  0.4176900  0.2503570  )
        32           Si  tau(  32) = (  0.0004960  0.4997500  0.1667910  )
        33           Si  tau(  33) = (  0.0835080  0.5833930  0.2500020  )
        34           Si  tau(  34) = (  0.9996580  0.3340340  0.3338600  )
        35           Si  tau(  35) = (  0.0827608  0.4174410  0.4171340  )
        36           Si  tau(  36) = (  0.1664050  0.5003770  0.3337600  )
        37           Si  tau(  37) = (  0.2503880  0.5831890  0.4167150  )
        38           Si  tau(  38) = (  0.1664670  0.3339340  0.4999960  )
        39           Si  tau(  39) = (  0.2502870  0.4166210  0.5832740  )
        40           Si  tau(  40) = (  0.9984490  0.5012850  0.5016720  )
        41           Si  tau(  41) = (  0.0849356  0.5827520  0.5825660  )
        42           Si  tau(  42) = (  0.0019790  0.3320830  0.6683250  )
        43           Si  tau(  43) = (  0.0841917  0.4173100  0.7506000  )
        44           Si  tau(  44) = (  0.1678330  0.5001780  0.6668370  )
        45           Si  tau(  45) = (  0.2511990  0.5832890  0.7501800  )
        46           Si  tau(  46) = (  0.1668960  0.3333700  0.8335320  )
        47           Si  tau(  47) = (  0.2504420  0.4168170  0.9163430  )
        48           Si  tau(  48) = (  0.0004006  0.5000790  0.8339690  )
        49           Si  tau(  49) = (  0.0843208  0.5828980  0.9169830  )
        50           Si  tau(  50) = (  0.0026968  0.6654670  0.0021828  )
        51           Si  tau(  51) = (  0.0847353  0.7502970  0.0841393  )
        52           Si  tau(  52) = (  0.1688700  0.8326020  0.0010639  )
        53           Si  tau(  53) = (  0.2513400  0.9167680  0.0837002  )
        54           Si  tau(  54) = (  0.1674140  0.6665010  0.1671200  )
        55           Si  tau(  55) = (  0.2504130  0.7500020  0.2504310  )
        56           Si  tau(  56) = (  0.0007765  0.8325390  0.1671800  )
        57           Si  tau(  57) = (  0.0833626  0.9165320  0.2504820  )
        58           Si  tau(  58) = (  0.0005208  0.6666680  0.3333780  )
        59           Si  tau(  59) = (  0.0838390  0.7497080  0.4168850  )
        60           Si  tau(  60) = (  0.1669240  0.8332590  0.3336160  )
        61           Si  tau(  61) = (  0.2503390  0.9165810  0.4168690  )
        62           Si  tau(  62) = (  0.1677790  0.6668650  0.4999640  )
        63           Si  tau(  63) = (  0.2510720  0.7500660  0.5831960  )
        64           Si  tau(  64) = (  0.0005840  0.8337480  0.4994920  )
        65           Si  tau(  65) = (  0.0843683  0.9166630  0.5826450  )
        66           Si  tau(  66) = (  0.9975690  0.6634040  0.6632840  )
        67           Si  tau(  67) = (  0.0858032  0.7459020  0.7459360  )
        68           Si  tau(  68) = (  0.1676370  0.8331130  0.6660000  )
        69           Si  tau(  69) = (  0.2510830  0.9161550  0.7496270  )
        70           Si  tau(  70) = (  0.1676050  0.6660190  0.8332080  )
        71           Si  tau(  71) = (  0.2507980  0.7497870  0.9163610  )
        72           Si  tau(  72) = (  0.0059433  0.8317330  0.8318240  )
        73           Si  tau(  73) = (  0.0873217  0.9170100  0.9174840  )
        74           Si  tau(  74) = (  0.3343260  0.0005754  0.0005231  )
        75           Si  tau(  75) = (  0.4161910  0.0844656  0.0845225  )
        76           Si  tau(  76) = (  0.4996790  0.1669640  0.0005176  )
        77           Si  tau(  77) = (  0.5835050  0.2501730  0.0833279  )
        78           Si  tau(  78) = (  0.4996970  0.0003706  0.1669510  )
        79           Si  tau(  79) = (  0.5836230  0.0832616  0.2500260  )
        80           Si  tau(  80) = (  0.3315560  0.1687410  0.1688220  )
        81           Si  tau(  81) = (  0.4177440  0.2501460  0.2501760  )
        82           Si  tau(  82) = (  0.3337830  0.9994940  0.3337040  )
        83           Si  tau(  83) = (  0.4164430  0.0837201  0.4163380  )
        84           Si  tau(  84) = (  0.5005570  0.1666410  0.3334030  )
        85           Si  tau(  85) = (  0.5832260  0.2504120  0.4166400  )
        86           Si  tau(  86) = (  0.4994410  0.0000417  0.4991350  )
        87           Si  tau(  87) = (  0.5819600  0.0837712  0.5818760  )
        88           Si  tau(  88) = (  0.3335210  0.1666610  0.5004160  )
        89           Si  tau(  89) = (  0.4167460  0.2502490  0.5832280  )
        90           Si  tau(  90) = (  0.3337080  0.0000828  0.6663140  )
        91           Si  tau(  91) = (  0.4167970  0.0835569  0.7497330  )
        92           Si  tau(  92) = (  0.4999120  0.1670020  0.6664170  )
        93           Si  tau(  93) = (  0.5821950  0.2516080  0.7496640  )
        94           Si  tau(  94) = (  0.4996950  0.0002280  0.8333440  )
        95           Si  tau(  95) = (  0.5825370  0.0838626  0.9167110  )
        96           Si  tau(  96) = (  0.3342550  0.1671760  0.8333710  )
        97           Si  tau(  97) = (  0.4172480  0.2505410  0.9167710  )
        98           Si  tau(  98) = (  0.3338590  0.3339080  0.9994650  )
        99           Si  tau(  99) = (  0.4164940  0.4164620  0.0837728  )
       100           Si  tau( 100) = (  0.4995840  0.4991910  0.0000688  )
       101           Si  tau( 101) = (  0.5820800  0.5820240  0.0837446  )
       102           Si  tau( 102) = (  0.5005270  0.3334950  0.1667270  )
       103           Si  tau( 103) = (  0.5833290  0.4167460  0.2504570  )
       104           Si  tau( 104) = (  0.3334570  0.5004520  0.1667660  )
       105           Si  tau( 105) = (  0.4167370  0.5833130  0.2502930  )
       106           Si  tau( 106) = (  0.3318480  0.3317880  0.3317780  )
       107           Si  tau( 107) = (  0.4160590  0.4160980  0.4160790  )
       108           Si  tau( 108) = (  0.4997530  0.4998730  0.3336540  )
       109           Si  tau( 109) = (  0.5830200  0.5834350  0.4168320  )
       110           Si  tau( 110) = (  0.4997250  0.3336280  0.4997940  )
       111           Si  tau( 111) = (  0.5829080  0.4168400  0.5833810  )
       112           Si  tau( 112) = (  0.3337090  0.4998010  0.4998970  )
       113           Si  tau( 113) = (  0.4169000  0.5833450  0.5833160  )
       114           Si  tau( 114) = (  0.3336080  0.3336030  0.6666270  )
       115           Si  tau( 115) = (  0.4165670  0.4173310  0.7498950  )
       116           Si  tau( 116) = (  0.5001990  0.5004590  0.6668580  )
       117           Si  tau( 117) = (  0.5835110  0.5837270  0.7504490  )
       118           Si  tau( 118) = (  0.4996530  0.3344890  0.8332930  )
       119           Si  tau( 119) = (  0.5837890  0.4170180  0.9165000  )
       120           Si  tau( 120) = (  0.3338480  0.5001750  0.8336060  )
       121           Si  tau( 121) = (  0.4171140  0.5832750  0.9169170  )
       122           Si  tau( 122) = (  0.3336970  0.6664920  1.0000100  )
       123           Si  tau( 123) = (  0.4167280  0.7497970  0.0837177  )
       124           Si  tau( 124) = (  0.4997310  0.8333230  0.0003312  )
       125           Si  tau( 125) = (  0.5827220  0.9166880  0.0838665  )
       126           Si  tau( 126) = (  0.4999130  0.6664430  0.1670140  )
       127           Si  tau( 127) = (  0.5822730  0.7496730  0.2515460  )
       128           Si  tau( 128) = (  0.3339410  0.8332600  0.1672840  )
       129           Si  tau( 129) = (  0.4171660  0.9166090  0.2504760  )
       130           Si  tau( 130) = (  0.3335870  0.6665980  0.3336080  )
       131           Si  tau( 131) = (  0.4165530  0.7498570  0.4172200  )
       132           Si  tau( 132) = (  0.4996670  0.8332710  0.3344330  )
       133           Si  tau( 133) = (  0.5836910  0.9165360  0.4170300  )
       134           Si  tau( 134) = (  0.5002230  0.6668820  0.5004060  )
       135           Si  tau( 135) = (  0.5836290  0.7504430  0.5836550  )
       136           Si  tau( 136) = (  0.3337890  0.8334980  0.5001300  )
       137           Si  tau( 137) = (  0.4170870  0.9168310  0.5832540  )
       138           Si  tau( 138) = (  0.3341430  0.6668720  0.6668420  )
       139           Si  tau( 139) = (  0.4177190  0.7500930  0.7501180  )
       140           Si  tau( 140) = (  0.5006720  0.8339820  0.6669210  )
       141           Si  tau( 141) = (  0.5838570  0.9178570  0.7501830  )
       142           Si  tau( 142) = (  0.5006080  0.6668880  0.8339980  )
       143           Si  tau( 143) = (  0.5838140  0.7501720  0.9178250  )
       144           Si  tau( 144) = (  0.3342310  0.8331920  0.8332960  )
       145           Si  tau( 145) = (  0.4169370  0.9168450  0.9169110  )
       146           Si  tau( 146) = (  0.6655990  0.0030467  0.0029655  )
       147           Si  tau( 147) = (  0.7509960  0.0848003  0.0844484  )
       148           Si  tau( 148) = (  0.8338900  0.1664930  0.9992170  )
       149           Si  tau( 149) = (  0.9166800  0.2499910  0.0831864  )
       150           Si  tau( 150) = (  0.8330200  0.0002474  0.1672010  )
       151           Si  tau( 151) = (  0.9169390  0.0831484  0.2504900  )
       152           Si  tau( 152) = (  0.6667570  0.1674150  0.1672110  )
       153           Si  tau( 153) = (  0.7500070  0.2504880  0.2504610  )
       154           Si  tau( 154) = (  0.6667410  0.0002301  0.3338000  )
       155           Si  tau( 155) = (  0.7498660  0.0839351  0.4168580  )
       156           Si  tau( 156) = (  0.8333020  0.1667650  0.3332920  )
       157           Si  tau( 157) = (  0.9165230  0.2501580  0.4164600  )
       158           Si  tau( 158) = (  0.8334590  0.0005733  0.4997890  )
       159           Si  tau( 159) = (  0.9171110  0.0839624  0.5827290  )
       160           Si  tau( 160) = (  0.6662870  0.1671640  0.4997650  )
       161           Si  tau( 161) = (  0.7493500  0.2517870  0.5820090  )
       162           Si  tau( 162) = (  0.6652120  0.0014678  0.6652350  )
       163           Si  tau( 163) = (  0.7436540  0.0928035  0.7434710  )
       164           Si  tau( 164) = (  0.8338950  0.1697010  0.6637930  )
       165           Si  tau( 165) = (  0.9139310  0.2524280  0.7493230  )
       166           Si  tau( 166) = (  0.8216050  0.9993180  0.8188500  )
       167           Si  tau( 167) = (  0.9192700  0.0854402  0.9137920  )
       168           Si  tau( 168) = (  0.6643360  0.1698690  0.8345160  )
       169           Si  tau( 169) = (  0.7501320  0.2508550  0.9169850  )
       170           Si  tau( 170) = (  0.6667360  0.3337520  0.0003048  )
       171           Si  tau( 171) = (  0.7498870  0.4168380  0.0839306  )
       172           Si  tau( 172) = (  0.8334530  0.4997170  0.0004975  )
       173           Si  tau( 173) = (  0.9168780  0.5829440  0.0837432  )
       174           Si  tau( 174) = (  0.8333380  0.3332040  0.1666780  )
       175           Si  tau( 175) = (  0.9167370  0.4166010  0.2498030  )
       176           Si  tau( 176) = (  0.6664090  0.4999090  0.1671260  )
       177           Si  tau( 177) = (  0.7495340  0.5822520  0.2516010  )
       178           Si  tau( 178) = (  0.6668080  0.3337100  0.3337850  )
       179           Si  tau( 179) = (  0.7500600  0.4170390  0.4171560  )
       180           Si  tau( 180) = (  0.8333540  0.4992430  0.3335210  )
       181           Si  tau( 181) = (  0.9168490  0.5830440  0.4158470  )
       182           Si  tau( 182) = (  0.8337220  0.3338750  0.4996010  )
       183           Si  tau( 183) = (  0.9179580  0.4150600  0.5838880  )
       184           Si  tau( 184) = (  0.6659710  0.5000460  0.5000690  )
       185           Si  tau( 185) = (  0.7488420  0.5833590  0.5835020  )
       186           Si  tau( 186) = (  0.6666470  0.3342860  0.6668100  )
       187           Si  tau( 187) = (  0.7504630  0.4183070  0.7490650  )
       188           Si  tau( 188) = (  0.8356400  0.5016410  0.6642290  )
       189           Si  tau( 189) = (  0.9167750  0.5827840  0.7507560  )
       190           Si  tau( 190) = (  0.8322070  0.3350640  0.8336580  )
       191           Si  tau( 191) = (  0.9170320  0.4167780  0.9170350  )
       192           Si  tau( 192) = (  0.6673110  0.5008360  0.8334950  )
       193           Si  tau( 193) = (  0.7504260  0.5839920  0.9178690  )
       194           Si  tau( 194) = (  0.6654140  0.6653910  0.0014725  )
       195           Si  tau( 195) = (  0.7442170  0.7436990  0.0925139  )
       196           Si  tau( 196) = (  0.8230450  0.8197880 -0.0001776  )
       197           Si  tau( 197) = (  0.9170260  0.9164450  0.0842228  )
       198           Si  tau( 198) = (  0.8345670  0.6643410  0.1700580  )
       199           Si  tau( 199) = (  0.9169700  0.7502920  0.2510940  )
       200           Si  tau( 200) = (  0.6646300  0.8344110  0.1697960  )
       201           Si  tau( 201) = (  0.7502490  0.9167500  0.2511320  )
       202           Si  tau( 202) = (  0.6667610  0.6668420  0.3342030  )
       203           Si  tau( 203) = (  0.7505950  0.7493400  0.4179270  )
       204           Si  tau( 204) = (  0.8332900  0.8331460  0.3344810  )
       205           Si  tau( 205) = (  0.9169210  0.9170620  0.4168270  )
       206           Si  tau( 206) = (  0.8351400  0.6645410  0.5018270  )
       207           Si  tau( 207) = (  0.9169250  0.7508810  0.5825710  )
       208           Si  tau( 208) = (  0.6674240  0.8336050  0.5007140  )
       209           Si  tau( 209) = (  0.7504700  0.9179350  0.5840900  )
       210           Si  tau( 210) = (  0.6666780  0.6673460  0.6674220  )
       211           Si  tau( 211) = (  0.7511820  0.7504460  0.7505080  )
       212           Si  tau( 212) = (  0.8339510  0.8337930  0.6666580  )
       213           Si  tau( 213) = (  0.9211280  0.9161500  0.7474120  )
       214           Si  tau( 214) = (  0.8340050  0.6666740  0.8339240  )
       215           Si  tau( 215) = (  0.9213310  0.7474810  0.9162190  )
       216           Si  tau( 216) = (  0.6669370  0.8334970  0.8334430  )
       217           Si  tau( 217) = (  0.7460240  0.9186500  0.9189970  )
       218           H   tau( 218) = (  0.7689970  0.9326750  0.7705660  )
       219           H   tau( 219) = (  0.7701830  0.7721120  0.9329780  )
       220           H   tau( 220) = (  0.2487490  0.2490380  0.2493060  )
       221           H   tau( 221) = (  0.0644753  0.2377230  0.7578400  )
       222           H   tau( 222) = (  0.9163160  0.5838890  0.5831400  )

     number of k points=     8  Marzari-Vanderbilt smearing, width (Ry)=  0.0500
                       cart. coord. in units 2pi/alat
        k(    1) = (   0.0000000   0.0000000   0.0000000), wk =   0.2500000
        k(    2) = (   0.0000000   0.0000000  -0.5000000), wk =   0.2500000
        k(    3) = (   0.0000000  -0.5000000  -0.5000000), wk =   0.2500000
        k(    4) = (  -0.5000000  -0.5000000  -0.5000000), wk =   0.2500000
        k(    5) = (  -0.5000000   0.0000000   0.0000000), wk =   0.2500000
        k(    6) = (   0.0000000  -0.5000000   0.0000000), wk =   0.2500000
        k(    7) = (  -0.5000000   0.0000000   0.5000000), wk =   0.2500000
        k(    8) = (  -0.5000000   0.5000000   0.0000000), wk =   0.2500000

                       cryst. coord.
        k(    1) = (   0.0000000   0.0000000   0.0000000), wk =   0.2500000
        k(    2) = (   0.0000000   0.0000000  -0.5000000), wk =   0.2500000
        k(    3) = (   0.0000000  -0.5000000  -0.5000000), wk =   0.2500000
        k(    4) = (  -0.5000000  -0.5000000  -0.5000000), wk =   0.2500000
        k(    5) = (  -0.5000000   0.0000000   0.0000000), wk =   0.2500000
        k(    6) = (   0.0000000  -0.5000000   0.0000000), wk =   0.2500000
        k(    7) = (  -0.5000000   0.0000000   0.5000000), wk =   0.2500000
        k(    8) = (  -0.5000000   0.5000000   0.0000000), wk =   0.2500000

     Dense  grid:  1091287 G-vectors     FFT dimensions: ( 128, 128, 128)

     Dynamical RAM for                 wfc:     136.37 MB

     Dynamical RAM for     wfc (w. buffer):    1227.36 MB

     Dynamical RAM for           str. fact:       4.16 MB

     Dynamical RAM for           local pot:       0.00 MB

     Dynamical RAM for          nlocal pot:     282.38 MB

     Dynamical RAM for                qrad:       1.76 MB

     Dynamical RAM for          rho,v,vnew:      12.24 MB

     Dynamical RAM for               rhoin:       4.08 MB

     Dynamical RAM for            rho*nmix:      33.30 MB

     Dynamical RAM for           G-vectors:       8.85 MB

     Dynamical RAM for          h,s,v(r/c):     201.11 MB

     Dynamical RAM for          <psi|beta>:       8.68 MB

     Dynamical RAM for                 psi:     545.49 MB

     Dynamical RAM for                hpsi:     545.49 MB

     Dynamical RAM for      wfcinit/wfcrot:     471.85 MB

     Estimated static dynamical RAM per process >       1.55 GB

     Estimated max dynamical RAM per process >       2.82 GB

     Estimated total dynamical RAM >      22.59 GB

     Initial potential from superposition of free atoms

     starting charge  872.87859, renormalised to  873.00000
     Starting wfc are  873 randomized atomic wfcs

     total cpu time spent up to now is      257.4 secs

     Self-consistent Calculation

     iteration #  1     ecut=    42.00 Ry     beta= 0.30
     Davidson diagonalization with overlap
     ethr =  1.00E-02,  avg # of iterations =  3.0

     Threshold (ethr) on eigenvalues was too large:
     Diagonalizing with lowered threshold

     Davidson diagonalization with overlap
     ethr =  7.27E-04,  avg # of iterations =  4.6

     total cpu time spent up to now is     1326.3 secs

     total energy              =   -1714.45426640 Ry
     Harris-Foulkes estimate   =   -1715.40273296 Ry
     estimated scf accuracy    <       6.19611108 Ry

     iteration #  2     ecut=    42.00 Ry     beta= 0.30
     Davidson diagonalization with overlap
     ethr =  7.10E-04,  avg # of iterations =  7.0

     total cpu time spent up to now is     1786.5 secs

     total energy              =   -1713.87322360 Ry
     Harris-Foulkes estimate   =   -1714.74671745 Ry
     estimated scf accuracy    <       4.01728217 Ry

     iteration #  3     ecut=    42.00 Ry     beta= 0.30
     Davidson diagonalization with overlap
     ethr =  4.60E-04,  avg # of iterations =  6.1

     total cpu time spent up to now is     2356.3 secs

     total energy              =   -1713.70135943 Ry
     Harris-Foulkes estimate   =   -1714.89331960 Ry
     estimated scf accuracy    <       7.59168297 Ry

     iteration #  4     ecut=    42.00 Ry     beta= 0.30
     Davidson diagonalization with overlap
     ethr =  4.60E-04,  avg # of iterations =  4.1

     total cpu time spent up to now is     2824.6 secs

     total energy              =   -1714.14709466 Ry
     Harris-Foulkes estimate   =   -1714.22302396 Ry
     estimated scf accuracy    <       0.33620589 Ry

     iteration #  5     ecut=    42.00 Ry     beta= 0.30
     Davidson diagonalization with overlap
     ethr =  3.85E-05,  avg # of iterations = 10.2

     total cpu time spent up to now is     3615.1 secs

     total energy              =   -1714.19193104 Ry
     Harris-Foulkes estimate   =   -1714.22030798 Ry
     estimated scf accuracy    <       0.16516510 Ry

     iteration #  6     ecut=    42.00 Ry     beta= 0.30
     Davidson diagonalization with overlap
     ethr =  1.89E-05,  avg # of iterations =  8.6

     total cpu time spent up to now is     4193.1 secs

     total energy              =   -1714.20255317 Ry
     Harris-Foulkes estimate   =   -1714.21180423 Ry
     estimated scf accuracy    <       0.05269566 Ry

     iteration #  7     ecut=    42.00 Ry     beta= 0.30
     Davidson diagonalization with overlap
     ethr =  6.04E-06,  avg # of iterations = 10.6

     total cpu time spent up to now is     4818.3 secs

     total energy              =   -1714.20622421 Ry
     Harris-Foulkes estimate   =   -1714.20967876 Ry
     estimated scf accuracy    <       0.02060862 Ry

     iteration #  8     ecut=    42.00 Ry     beta= 0.30
     Davidson diagonalization with overlap
     ethr =  2.36E-06,  avg # of iterations = 12.9

     total cpu time spent up to now is     5503.8 secs

     total energy              =   -1714.20743583 Ry
     Harris-Foulkes estimate   =   -1714.20912352 Ry
     estimated scf accuracy    <       0.00933266 Ry

     iteration #  9     ecut=    42.00 Ry     beta= 0.30
     Davidson diagonalization with overlap
     ethr =  1.07E-06,  avg # of iterations =  6.5

     total cpu time spent up to now is     5981.0 secs

     total energy              =   -1714.20822152 Ry
     Harris-Foulkes estimate   =   -1714.20850316 Ry
     estimated scf accuracy    <       0.00157615 Ry

     iteration # 10     ecut=    42.00 Ry     beta= 0.30
     Davidson diagonalization with overlap
     ethr =  1.81E-07,  avg # of iterations =  3.1

     total cpu time spent up to now is     6429.8 secs

     total energy              =   -1714.20833951 Ry
     Harris-Foulkes estimate   =   -1714.20853861 Ry
     estimated scf accuracy    <       0.00101703 Ry

     iteration # 11     ecut=    42.00 Ry     beta= 0.30
     Davidson diagonalization with overlap
     ethr =  1.16E-07,  avg # of iterations =  3.1

     total cpu time spent up to now is     6849.7 secs

     total energy              =   -1714.20843717 Ry
     Harris-Foulkes estimate   =   -1714.20848248 Ry
     estimated scf accuracy    <       0.00022992 Ry

     iteration # 12     ecut=    42.00 Ry     beta= 0.30
     Davidson diagonalization with overlap
     ethr =  2.63E-08,  avg # of iterations =  3.5

     total cpu time spent up to now is     7293.5 secs

     total energy              =   -1714.20846490 Ry
     Harris-Foulkes estimate   =   -1714.20848179 Ry
     estimated scf accuracy    <       0.00011000 Ry

     iteration # 13     ecut=    42.00 Ry     beta= 0.30
     Davidson diagonalization with overlap
     ethr =  1.26E-08,  avg # of iterations =  3.0

     total cpu time spent up to now is     7719.5 secs

     total energy              =   -1714.20847510 Ry
     Harris-Foulkes estimate   =   -1714.20847742 Ry
     estimated scf accuracy    <       0.00001741 Ry

     iteration # 14     ecut=    42.00 Ry     beta= 0.30
     Davidson diagonalization with overlap
     ethr =  1.99E-09,  avg # of iterations =  3.8

     total cpu time spent up to now is     8183.1 secs

     total energy              =   -1714.20847717 Ry
     Harris-Foulkes estimate   =   -1714.20848015 Ry
     estimated scf accuracy    <       0.00002675 Ry

     iteration # 15     ecut=    42.00 Ry     beta= 0.30
     Davidson diagonalization with overlap
     ethr =  1.99E-09,  avg # of iterations =  2.9

     total cpu time spent up to now is     8580.1 secs

     total energy              =   -1714.20847986 Ry
     Harris-Foulkes estimate   =   -1714.20847931 Ry
     estimated scf accuracy    <       0.00000201 Ry

     iteration # 16     ecut=    42.00 Ry     beta= 0.30
     Davidson diagonalization with overlap
     ethr =  2.30E-10,  avg # of iterations =  3.5

     total cpu time spent up to now is     9041.6 secs

     total energy              =   -1714.20848045 Ry
     Harris-Foulkes estimate   =   -1714.20848026 Ry
     estimated scf accuracy    <       0.00000151 Ry

     iteration # 17     ecut=    42.00 Ry     beta= 0.30
     Davidson diagonalization with overlap
     ethr =  1.73E-10,  avg # of iterations =  3.0

     total cpu time spent up to now is     9453.2 secs

     total energy              =   -1714.20848080 Ry
     Harris-Foulkes estimate   =   -1714.20848063 Ry
     estimated scf accuracy    <       0.00000041 Ry

     iteration # 18     ecut=    42.00 Ry     beta= 0.30
     Davidson diagonalization with overlap
     ethr =  4.66E-11,  avg # of iterations =  3.5

     total cpu time spent up to now is     9901.4 secs

     total energy              =   -1714.20848092 Ry
     Harris-Foulkes estimate   =   -1714.20848089 Ry
     estimated scf accuracy    <       0.00000046 Ry

     iteration # 19     ecut=    42.00 Ry     beta= 0.30
     Davidson diagonalization with overlap
     ethr =  4.66E-11,  avg # of iterations =  3.1

     total cpu time spent up to now is    10313.5 secs

     total energy              =   -1714.20848099 Ry
     Harris-Foulkes estimate   =   -1714.20848098 Ry
     estimated scf accuracy    <       0.00000015 Ry

     iteration # 20     ecut=    42.00 Ry     beta= 0.30
     Davidson diagonalization with overlap
     ethr =  1.69E-11,  avg # of iterations =  3.1

     total cpu time spent up to now is    10720.8 secs

     total energy              =   -1714.20848102 Ry
     Harris-Foulkes estimate   =   -1714.20848101 Ry
     estimated scf accuracy    <       0.00000003 Ry

     iteration # 21     ecut=    42.00 Ry     beta= 0.30
     Davidson diagonalization with overlap
     ethr =  3.45E-12,  avg # of iterations =  3.2

     total cpu time spent up to now is    11192.7 secs

     End of self-consistent calculation

          k = 0.0000 0.0000 0.0000 (136411 PWs)   bands (ev):

    -6.2668  -5.6703  -5.3570  -5.3274  -5.3058  -5.2678  -5.2618  -5.0852
    -4.9378  -4.9303  -4.9057  -4.8551  -4.8523  -4.8223  -4.8177  -4.8068
    -4.7974  -4.7964  -4.7897  -4.5010  -4.4759  -4.4668  -4.4417  -4.4261
    -4.4077  -4.3930  -4.3830  -4.0614  -4.0247  -3.9930  -3.9578  -3.8858
    -3.8547  -3.7636  -3.7386  -3.6997  -3.6476  -3.6017  -3.5748  -3.5523
    -3.5398  -3.5313  -3.5071  -3.5034  -3.4974  -3.4971  -3.4944  -3.4910
    -3.4894  -3.4865  -3.4813  -3.4782  -3.4772  -3.4712  -3.4676  -3.4644
    -3.4567  -3.3749  -3.3693  -3.3670  -3.3647  -3.3281  -3.3122  -3.3096
    -3.3072  -3.3052  -3.3028  -3.2998  -3.2957  -3.2867  -3.2846  -3.2820
    -3.2798  -3.2780  -3.2758  -3.2712  -3.2704  -3.2677  -3.2667  -3.2607
    -3.2573  -2.6162  -2.6047  -2.5904  -2.5616  -2.5565  -2.5564  -2.5437
    -2.5376  -2.5352  -2.5278  -2.5270  -2.5145  -1.9153  -1.8542  -1.7963
    -1.7692  -1.7036  -1.6893  -1.6181  -1.6126  -1.6113  -1.6074  -1.5984
    -1.5864  -1.5833  -1.5724  -1.5685  -1.5673  -1.5587  -1.5535  -1.5487
    -1.5364  -1.5340  -1.5327  -1.5300  -1.5286  -1.5277  -1.5244  -1.5219
    -1.5201  -1.5126  -1.5066  -1.3045  -1.0189  -0.8616  -0.7479  -0.7234
    -0.6947  -0.6835  -0.6720  -0.6522  -0.6483  -0.6273  -0.6222  -0.6101
    -0.5867  -0.5844  -0.5658  -0.5515  -0.5420  -0.4780  -0.4713  -0.4624
    -0.4550  -0.4485  -0.4425  -0.4397  -0.4354  -0.4277  -0.4260  -0.4240
    -0.4200  -0.4197  -0.4146  -0.4107  -0.4056  -0.4050  -0.3922   0.2600
     0.3392   0.3642   0.3739   0.3943   0.4042   0.4165   0.4270   0.4573
     0.4647   0.4702   0.4744   0.4777   0.4784   0.4872   0.4903   0.4913
     0.4921   0.4973   0.4981   0.4996   0.5021   0.5034   0.5085   0.5150
     0.6718   0.7311   0.7550   0.7757   0.7817   0.8058   0.8168   0.8768
     1.0747   1.0818   1.0871   1.0878   1.0991   1.1161   1.2358   1.3565
     1.4504   1.5814   1.6519   1.7218   1.7257   1.7519   1.7596   1.7734
     1.7888   1.8572   1.9906   2.0562   2.0665   2.1002   2.1352   2.1808
     2.2085   2.2983   2.3586   2.3650   2.3826   2.3869   2.3901   2.3973
     2.3976   2.4053   2.4085   2.4206   2.4294   2.4374   2.4617   2.4708
     2.4904   2.5069   2.5102   2.5183   2.5214   2.5306   2.5359   2.5381
     2.5402   2.5435   2.5454   2.5489   2.5509   2.5558   2.5571   2.5606
     2.5641   2.5657   2.5744   2.5788   2.5810   2.5825   2.5868   2.5887
     2.5915   2.5929   2.5963   2.6006   2.6015   2.6068   2.6104   2.6108
     2.6136   2.6188   2.6202   2.6231   2.6345   3.0683   3.1018   3.1523
     3.1658   3.1783   3.2046   3.2327   3.2533   3.2686   3.2717   3.2877
     3.2924   3.3005   3.3047   3.3103   3.3179   3.3245   3.3306   3.3429
     3.3504   3.3572   3.3608   3.3641   3.3663   3.3691   3.3728   3.3734
     3.3780   3.3814   3.3859   3.5119   3.5281   3.5676   3.5825   3.6022
     3.6130   3.6364   3.6455   3.6617   3.6778   3.6790   3.6918   3.7080
     3.7137   3.7147   3.7211   3.7254   3.7323   3.7352   3.7392   3.7414
     3.7467   3.7524   3.7537   3.7682   3.7688   3.7854   3.7934   3.7999
     3.8039   3.8065   3.8113   3.8231   3.8252   3.8314   3.8346   3.8400
     3.8422   3.8488   3.8515   3.8563   3.8580   3.8647   3.8673   3.8746
     3.8762   3.8800   3.8838   4.0038   4.0075   4.0090   4.0126   4.0155
     4.0166   4.0192   4.0216   4.0252   4.0305   4.0318   4.0323   4.0325
     4.0419   4.0443   4.0492   4.0567   4.0624   4.2722   4.2880   4.2948
     4.3043   4.3079   4.3102   4.3212   4.3263   4.3276   4.3328   4.3354
     4.3411   4.3436   4.3514   4.3580   4.3658   4.3702   4.3742   4.3775
     4.3837   4.3886   4.3944   4.3956   4.4041   4.8058   4.8382   4.8563
     4.8848   4.9068   4.9115   4.9174   4.9269   4.9318   4.9423   4.9426
     4.9541   5.0509   5.0607   5.0803   5.0839   5.0854   5.0966   5.1027
     5.1045   5.1092   5.1111   5.1161   5.1229   5.1237   5.1305   5.1352
     5.1398   5.1752   5.4436   5.4548   5.5172   5.5205   5.5240   5.5265
     5.5310   5.5432   5.5490   5.5545   5.5646   5.5682   5.6314   5.6783
     5.6950   5.7566   5.9232   6.0901   6.0986   6.1036   6.6717   6.7492
     6.7596   6.8305   6.8521   6.8664   6.9041   6.9308   7.0090   7.0728
     7.1070   7.1996   7.2584   7.3136   7.3517   7.5875   7.6056   7.6659
     7.6790   7.6917   7.7036   7.7075   7.7106   7.7185   7.7415   7.7642
     7.7694   7.7720   7.7839   7.7912   7.7941   7.7999   7.8147   7.8334
     7.8690   7.8786   7.8965   7.8973   7.9248   7.9376   8.0079   8.0414
     8.0609   8.0741   8.0834   8.0866   8.0955   8.0998   8.1067   8.1164
     8.1183   8.1201   8.1277   8.1319   8.1338   8.1357   8.1390   8.1420
     8.1444   8.1501   8.1602   8.1666   8.3424   8.3926   8.4335   8.4460
     8.4642   8.5086   8.5254   8.5435   8.6182   8.6586   8.6876   8.7048
     8.7069   8.7186   8.7570   8.8082   8.8194   8.8242   8.8337   8.8353
     8.8433   8.8447   8.8499   8.8525

     occupation numbers 
     1.0000   1.0000   1.0000   1.0000   1.0000   1.0000   1.0000   1.0000
     1.0000   1.0000   1.0000   1.0000   1.0000   1.0000   1.0000   1.0000
     1.0000   1.0000   1.0000   1.0000   1.0000   1.0000   1.0000   1.0000
     1.0000   1.0000   1.0000   1.0000   1.0000   1.0000   1.0000   1.0000
     1.0000   1.0000   1.0000   1.0000   1.0000   1.0000   1.0000   1.0000
     1.0000   1.0000   1.0000   1.0000   1.0000   1.0000   1.0000   1.0000
     1.0000   1.0000   1.0000   1.0000   1.0000   1.0000   1.0000   1.0000
     1.0000   1.0000   1.0000   1.0000   1.0000   1.0000   1.0000   1.0000
     1.0000   1.0000   1.0000   1.0000   1.0000   1.0000   1.0000   1.0000
     1.0000   1.0000   1.0000   1.0000   1.0000   1.0000   1.0000   1.0000
     1.0000   1.0000   1.0000   1.0000   1.0000   1.0000   1.0000   1.0000
     1.0000   1.0000   1.0000   1.0000   1.0000   1.0000   1.0000   1.0000
     1.0000   1.0000   1.0000   1.0000   1.0000   1.0000   1.0000   1.0000
     1.0000   1.0000   1.0000   1.0000   1.0000   1.0000   1.0000   1.0000
     1.0000   1.0000   1.0000   1.0000   1.0000   1.0000   1.0000   1.0000
     1.0000   1.0000   1.0000   1.0000   1.0000   1.0000   1.0000   1.0000
     1.0000   1.0000   1.0000   1.0000   1.0000   1.0000   1.0000   1.0000
     1.0000   1.0000   1.0000   1.0000   1.0000   1.0000   1.0000   1.0000
     1.0000   1.0000   1.0000   1.0000   1.0000   1.0000   1.0000   1.0000
     1.0000   1.0000   1.0000   1.0000   1.0000   1.0000   1.0000   1.0000
     1.0000   1.0000   1.0000   1.0000   1.0000   1.0000   1.0000   1.0000
     1.0000   1.0000   1.0000   1.0000   1.0000   1.0000   1.0000   1.0000
     1.0000   1.0000   1.0000   1.0000   1.0000   1.0000   1.0000   1.0000
     1.0000   1.0000   1.0000   1.0000   1.0000   1.0000   1.0000   1.0000
     1.0000   1.0000   1.0000   1.0000   1.0000   1.0000   1.0000   1.0000
     1.0000   1.0000   1.0000   1.0000   1.0000   1.0000   1.0000   1.0000
     1.0000   1.0000   1.0000   1.0000   1.0000   1.0000   1.0000   1.0000
     1.0000   1.0000   1.0000   1.0000   1.0000   1.0000   1.0000   1.0000
     1.0000   1.0000   1.0000   1.0000   1.0000   1.0000   1.0000   1.0000
     1.0000   1.0000   1.0000   1.0000   1.0000   1.0000   1.0000   1.0000
     1.0000   1.0000   1.0000   1.0000   1.0000   1.0000   1.0000   1.0000
     1.0000   1.0000   1.0000   1.0000   1.0000   1.0000   1.0000   1.0000
     1.0000   1.0000   1.0000   1.0000   1.0000   1.0000   1.0000   1.0000
     1.0000   1.0000   1.0000   1.0000   1.0000   1.0000   1.0000   1.0000
     1.0000   1.0000   1.0000   1.0000   1.0000   1.0000   1.0000   1.0000
     1.0000   1.0000   1.0000   1.0000   1.0000   1.0000   1.0000   1.0000
     1.0000   1.0000   1.0000   1.0000   1.0000   1.0000   1.0000   1.0000
     1.0000   1.0000   1.0000   1.0001   1.0001   1.0001   1.0001   1.0001
     1.0001   1.0002   1.0002   1.0002   1.0002   1.0002   1.0002   1.0003
     1.0003   1.0003   1.0003   1.0003   1.0003   1.0003   1.0003   1.0004
     1.0004   1.0004   1.0004   1.0004   1.0004   1.0005   1.0005   1.0005
     1.0006   1.0006   1.0006   1.0006   1.0006   1.0007   1.0007   1.0007
     1.0007   1.0008   1.0008   1.0008   1.0008   1.0009   1.0009   1.0009
     1.0009   1.0009   1.0010   1.0021   1.0022   1.0022   1.0022   1.0023
     1.0023   1.0023   1.0024   1.0024   1.0025   1.0025   1.0025   1.0025
     1.0027   1.0027   1.0028   1.0029   1.0030   1.0096   1.0104   1.0108
     1.0113   1.0115   1.0116   1.0122   1.0125   1.0126   1.0129   1.0131
     1.0134   1.0136   1.0141   1.0145   1.0150   1.0153   1.0156   1.0159
     1.0163   1.0167   1.0171   1.0172   1.0178   1.0653   1.0695   1.0717
     1.0748   1.0770   1.0775   1.0780   1.0788   1.0792   1.0800   1.0801
     1.0808   1.0830   1.0827   1.0817   1.0815   1.0814   1.0805   1.0800
     1.0798   1.0793   1.0791   1.0786   1.0778   1.0777   1.0769   1.0762
     1.0756   1.0694   0.9484   0.9403   0.8909   0.8881   0.8851   0.8829
     0.8791   0.8683   0.8632   0.8582   0.8490   0.8457   0.7844   0.7359
     0.7183   0.6513   0.4684   0.3046   0.2971   0.2928   0.0291   0.0192
     0.0181   0.0121   0.0106   0.0097   0.0077   0.0066   0.0040   0.0026
     0.0020   0.0010   0.0007   0.0004   0.0003   0.0000   0.0000   0.0000
     0.0000   0.0000   0.0000   0.0000   0.0000   0.0000   0.0000   0.0000
     0.0000   0.0000   0.0000   0.0000   0.0000   0.0000   0.0000   0.0000
     0.0000   0.0000   0.0000   0.0000   0.0000   0.0000   0.0000   0.0000
     0.0000   0.0000   0.0000   0.0000   0.0000   0.0000   0.0000   0.0000
     0.0000   0.0000   0.0000   0.0000   0.0000   0.0000   0.0000   0.0000
     0.0000   0.0000   0.0000   0.0000   0.0000   0.0000   0.0000   0.0000
     0.0000   0.0000   0.0000   0.0000   0.0000   0.0000   0.0000   0.0000
     0.0000   0.0000   0.0000   0.0000   0.0000   0.0000   0.0000   0.0000
     0.0000   0.0000   0.0000   0.0000

          k = 0.0000 0.0000-0.5000 (136448 PWs)   bands (ev):

    -6.2634  -5.6351  -5.5280  -5.2779  -5.2334  -5.1928  -5.1736  -5.1540
    -5.1428  -5.1406  -4.9236  -4.8404  -4.8191  -4.7590  -4.7319  -4.7220
    -4.7118  -4.6878  -4.6845  -4.6738  -4.4212  -4.3805  -4.3298  -4.3021
    -4.2962  -4.2659  -4.2464  -4.2333  -4.0586  -4.0492  -4.0070  -3.9570
    -3.9352  -3.9089  -3.9051  -3.8900  -3.8682  -3.8591  -3.8431  -3.7880
    -3.7739  -3.7642  -3.7594  -3.7556  -3.5944  -3.5834  -3.5417  -3.5195
    -3.4801  -3.4746  -3.4578  -3.4406  -3.4322  -3.4298  -3.4251  -3.4203
    -3.4179  -3.4136  -3.4105  -3.4014  -3.2685  -3.2629  -3.2550  -3.2337
    -3.2223  -3.2187  -3.2158  -3.2111  -3.1004  -3.0937  -3.0857  -3.0789
    -3.0687  -3.0617  -3.0509  -3.0341  -2.9617  -2.8855  -2.8241  -2.8083
    -2.7986  -2.7689  -2.7574  -2.7521  -2.7416  -2.7348  -2.6176  -2.6054
    -2.5899  -2.5828  -2.5727  -2.5703  -2.5661  -2.5538  -2.0799  -2.0721
    -2.0389  -2.0360  -2.0273  -2.0197  -2.0156  -2.0034  -1.8320  -1.7206
    -1.7148  -1.6859  -1.6381  -1.6155  -1.6114  -1.6105  -1.5178  -1.5129
    -1.5067  -1.5041  -1.4417  -1.2724  -1.1767  -1.1614  -1.1458  -1.1236
    -1.1162  -1.1042  -1.0736  -0.9975  -0.9211  -0.7845  -0.7754  -0.7538
    -0.7211  -0.6984  -0.6869  -0.6807  -0.6724  -0.6581  -0.6506  -0.6385
    -0.6340  -0.6255  -0.5436  -0.5316  -0.5204  -0.5164  -0.5078  -0.4980
    -0.4949  -0.4917  -0.3388  -0.3271  -0.2871  -0.2236  -0.1716  -0.1483
    -0.1309  -0.1123  -0.1072  -0.0792  -0.0670  -0.0589  -0.0513  -0.0037
     0.0076   0.0265   0.0350   0.0515   0.0570   0.0747   0.0851   0.0894
     0.0964   0.0986   0.1008   0.1057   0.1141   0.1238   0.1283   0.1323
     0.1338   0.1382   0.1465   0.1576   0.6062   0.8694   0.8763   0.8825
     0.9038   0.9214   0.9407   0.9438   0.9511   1.1176   1.2571   1.3136
     1.3750   1.3962   1.4116   1.4196   1.4266   1.4551   1.5044   1.5169
     1.5498   1.5748   1.6492   1.6943   1.7225   1.7302   1.7567   1.7786
     1.8097   1.8430   1.8897   1.9076   1.9211   1.9241   1.9722   1.9906
     1.9978   2.0052   2.0199   2.0247   2.0424   2.0789   2.1188   2.1467
     2.1904   2.2114   2.2270   2.2545   2.2631   2.2792   2.2848   2.2863
     2.3182   2.3404   2.3455   2.3521   2.3834   2.3936   2.4081   2.4104
     2.5388   2.5575   2.5921   2.6252   2.6727   2.7051   2.7284   2.7497
     2.7664   2.8009   2.8338   2.8861   2.9024   2.9071   2.9137   2.9171
     2.9183   2.9305   2.9313   2.9426   2.9484   2.9533   2.9571   2.9664
     2.9754   2.9818   2.9836   2.9874   2.9943   3.0052   3.0084   3.0116
     3.0172   3.0234   3.0285   3.0331   3.0383   3.0451   3.0491   3.0549
     3.0644   3.0647   3.1848   3.2149   3.2290   3.2509   3.2627   3.2783
     3.2943   3.3117   3.3220   3.3296   3.3397   3.3404   3.3438   3.3486
     3.3505   3.3549   3.3592   3.3626   3.3717   3.3760   3.3778   3.3826
     3.3883   3.3899   3.3954   3.4036   3.4180   3.4201   3.4740   3.4786
     3.4923   3.5066   3.5085   3.5243   3.5317   3.5406   3.6288   3.6466
     3.6619   3.6931   3.7069   3.7400   3.7463   3.7538   3.8333   3.8896
     3.9024   3.9195   3.9259   3.9327   3.9558   3.9628   3.9767   3.9922
     3.9974   4.0023   4.0099   4.0127   4.0200   4.0274   4.0305   4.0372
     4.0394   4.0509   4.0521   4.0579   4.0680   4.0742   4.0871   4.0943
     4.1128   4.1164   4.1240   4.1290   4.1300   4.1339   4.2032   4.2170
     4.2303   4.2348   4.2785   4.3245   4.3373   4.3512   4.3664   4.3832
     4.3979   4.4106   4.4173   4.4382   4.4408   4.4533   4.4580   4.4626
     4.4666   4.4701   4.4728   4.4801   4.4849   4.4909   4.4969   4.5032
     4.5136   4.5176   4.5325   4.5370   4.5397   4.5485   4.5523   4.5570
     4.5596   4.5737   4.6773   4.6808   4.6913   4.7059   4.7079   4.7204
     4.7238   4.7391   4.8091   4.8260   4.8316   4.8434   4.8446   4.8491
     4.8533   4.8624   5.2275   5.3021   5.3349   5.3520   5.3716   5.3733
     5.3808   5.3923   5.4013   5.4072   5.4161   5.4216   5.4263   5.4310
     5.4363   5.4370   5.4442   5.4533   5.4600   5.6115   5.6465   5.6675
     5.6836   5.6988   5.7744   5.8244   5.8574   6.0014   6.6857   6.8591
     7.0177   7.1445   7.1509   7.2472   7.3097   7.3551   7.3794   7.4056
     7.4495   7.4623   7.4656   7.4709   7.4856   7.4987   7.5105   7.5234
     7.5342   7.5522   7.6164   7.6371   7.6497   7.6679   7.7261   7.7899
     7.8015   7.8104   7.8133   7.8248   7.8461   7.8560   7.8633   7.8818
     7.9339   7.9438   7.9845   8.0068   8.0244   8.0483   8.1199   8.1306
     8.1503   8.1556   8.1789   8.1917   8.2081   8.2288   8.2348   8.2607
     8.2880   8.2965   8.3086   8.3194   8.3330   8.3379   8.3383   8.3574
     8.3604   8.3629   8.3769   8.3931   8.3970   8.4031   8.4057   8.4066
     8.4170   8.4270   8.4321   8.4416   8.4494   8.4562   8.4620   8.4648
     8.4704   8.4733   8.4819   8.4848   8.4945   8.5209   8.5361   8.5456
     8.5615   8.5770   8.5908   8.5972

     occupation numbers 
     1.0000   1.0000   1.0000   1.0000   1.0000   1.0000   1.0000   1.0000
     1.0000   1.0000   1.0000   1.0000   1.0000   1.0000   1.0000   1.0000
     1.0000   1.0000   1.0000   1.0000   1.0000   1.0000   1.0000   1.0000
     1.0000   1.0000   1.0000   1.0000   1.0000   1.0000   1.0000   1.0000
     1.0000   1.0000   1.0000   1.0000   1.0000   1.0000   1.0000   1.0000
     1.0000   1.0000   1.0000   1.0000   1.0000   1.0000   1.0000   1.0000
     1.0000   1.0000   1.0000   1.0000   1.0000   1.0000   1.0000   1.0000
     1.0000   1.0000   1.0000   1.0000   1.0000   1.0000   1.0000   1.0000
     1.0000   1.0000   1.0000   1.0000   1.0000   1.0000   1.0000   1.0000
     1.0000   1.0000   1.0000   1.0000   1.0000   1.0000   1.0000   1.0000
     1.0000   1.0000   1.0000   1.0000   1.0000   1.0000   1.0000   1.0000
     1.0000   1.0000   1.0000   1.0000   1.0000   1.0000   1.0000   1.0000
     1.0000   1.0000   1.0000   1.0000   1.0000   1.0000   1.0000   1.0000
     1.0000   1.0000   1.0000   1.0000   1.0000   1.0000   1.0000   1.0000
     1.0000   1.0000   1.0000   1.0000   1.0000   1.0000   1.0000   1.0000
     1.0000   1.0000   1.0000   1.0000   1.0000   1.0000   1.0000   1.0000
     1.0000   1.0000   1.0000   1.0000   1.0000   1.0000   1.0000   1.0000
     1.0000   1.0000   1.0000   1.0000   1.0000   1.0000   1.0000   1.0000
     1.0000   1.0000   1.0000   1.0000   1.0000   1.0000   1.0000   1.0000
     1.0000   1.0000   1.0000   1.0000   1.0000   1.0000   1.0000   1.0000
     1.0000   1.0000   1.0000   1.0000   1.0000   1.0000   1.0000   1.0000
     1.0000   1.0000   1.0000   1.0000   1.0000   1.0000   1.0000   1.0000
     1.0000   1.0000   1.0000   1.0000   1.0000   1.0000   1.0000   1.0000
     1.0000   1.0000   1.0000   1.0000   1.0000   1.0000   1.0000   1.0000
     1.0000   1.0000   1.0000   1.0000   1.0000   1.0000   1.0000   1.0000
     1.0000   1.0000   1.0000   1.0000   1.0000   1.0000   1.0000   1.0000
     1.0000   1.0000   1.0000   1.0000   1.0000   1.0000   1.0000   1.0000
     1.0000   1.0000   1.0000   1.0000   1.0000   1.0000   1.0000   1.0000
     1.0000   1.0000   1.0000   1.0000   1.0000   1.0000   1.0000   1.0000
     1.0000   1.0000   1.0000   1.0000   1.0000   1.0000   1.0000   1.0000
     1.0000   1.0000   1.0000   1.0000   1.0000   1.0000   1.0000   1.0000
     1.0000   1.0000   1.0000   1.0000   1.0000   1.0000   1.0000   1.0000
     1.0000   1.0000   1.0000   1.0000   1.0000   1.0000   1.0000   1.0000
     1.0000   1.0000   1.0000   1.0000   1.0000   1.0000   1.0000   1.0000
     1.0000   1.0000   1.0000   1.0000   1.0000   1.0000   1.0000   1.0000
     1.0000   1.0000   1.0000   1.0000   1.0000   1.0000   1.0000   1.0000
     1.0000   1.0000   1.0000   1.0000   1.0000   1.0000   1.0000   1.0000
     1.0000   1.0000   1.0000   1.0000   1.0000   1.0000   1.0000   1.0000
     1.0000   1.0000   1.0000   1.0000   1.0000   1.0000   1.0000   1.0000
     1.0000   1.0001   1.0001   1.0001   1.0001   1.0001   1.0001   1.0002
     1.0002   1.0002   1.0003   1.0003   1.0004   1.0004   1.0007   1.0010
     1.0011   1.0012   1.0013   1.0013   1.0016   1.0016   1.0018   1.0020
     1.0020   1.0021   1.0022   1.0022   1.0024   1.0025   1.0025   1.0026
     1.0026   1.0028   1.0029   1.0030   1.0031   1.0033   1.0035   1.0037
     1.0041   1.0042   1.0044   1.0045   1.0045   1.0046   1.0067   1.0073
     1.0078   1.0080   1.0099   1.0124   1.0132   1.0141   1.0151   1.0163
     1.0173   1.0183   1.0189   1.0206   1.0208   1.0219   1.0223   1.0228
     1.0231   1.0235   1.0237   1.0244   1.0249   1.0255   1.0261   1.0267
     1.0278   1.0282   1.0298   1.0303   1.0306   1.0316   1.0320   1.0325
     1.0328   1.0345   1.0478   1.0482   1.0497   1.0517   1.0520   1.0537
     1.0542   1.0563   1.0658   1.0679   1.0687   1.0701   1.0703   1.0708
     1.0713   1.0724   1.0565   1.0295   1.0143   1.0054   0.9946   0.9936
     0.9893   0.9824   0.9768   0.9730   0.9672   0.9636   0.9604   0.9572
     0.9535   0.9530   0.9479   0.9414   0.9364   0.8042   0.7691   0.7473
     0.7304   0.7142   0.6316   0.5762   0.5399   0.3878   0.0270   0.0102
     0.0037   0.0016   0.0015   0.0007   0.0004   0.0003   0.0003   0.0002
     0.0001   0.0001   0.0001   0.0001   0.0001   0.0001   0.0001   0.0001
     0.0001   0.0001   0.0000   0.0000   0.0000   0.0000   0.0000   0.0000
     0.0000   0.0000   0.0000   0.0000   0.0000   0.0000   0.0000   0.0000
     0.0000   0.0000   0.0000   0.0000   0.0000   0.0000   0.0000   0.0000
     0.0000   0.0000   0.0000   0.0000   0.0000   0.0000   0.0000   0.0000
     0.0000   0.0000   0.0000   0.0000   0.0000   0.0000   0.0000   0.0000
     0.0000   0.0000   0.0000   0.0000   0.0000   0.0000   0.0000   0.0000
     0.0000   0.0000   0.0000   0.0000   0.0000   0.0000   0.0000   0.0000
     0.0000   0.0000   0.0000   0.0000   0.0000   0.0000   0.0000   0.0000
     0.0000   0.0000   0.0000   0.0000

          k = 0.0000-0.5000-0.5000 (136396 PWs)   bands (ev):

    -6.2605  -5.5479  -5.5232  -5.5052  -5.3391  -5.1988  -5.0872  -5.0761
    -5.0711  -5.0563  -5.0256  -5.0138  -4.8462  -4.7419  -4.6516  -4.6286
    -4.5864  -4.5637  -4.5554  -4.5390  -4.3793  -4.3549  -4.3216  -4.2382
    -4.2315  -4.2009  -4.1915  -4.1778  -4.1667  -4.1554  -4.1524  -4.1505
    -4.1381  -4.1320  -4.1263  -4.1172  -3.9103  -3.8815  -3.8309  -3.7825
    -3.7504  -3.7308  -3.6994  -3.6989  -3.6890  -3.6862  -3.6623  -3.6544
    -3.5975  -3.5919  -3.5816  -3.5651  -3.5328  -3.5235  -3.5194  -3.5130
    -3.2323  -3.2224  -3.1842  -3.1709  -3.1313  -3.1160  -3.0934  -3.0874
    -3.0793  -3.0729  -3.0704  -3.0664  -3.0616  -3.0577  -3.0557  -3.0442
    -2.9198  -2.9058  -2.8954  -2.7889  -2.7867  -2.7718  -2.7617  -2.7598
    -2.6945  -2.6853  -2.6793  -2.6244  -2.6169  -2.6092  -2.5956  -2.5922
    -2.5915  -2.5881  -2.5851  -2.5826  -2.5767  -2.5697  -2.5679  -2.5642
    -2.3387  -2.3332  -2.3259  -2.3017  -2.2921  -2.2870  -2.2801  -2.2643
    -1.9019  -1.8581  -1.8122  -1.8001  -1.6018  -1.4667  -1.4272  -1.4083
    -1.3055  -1.1823  -0.9428  -0.8735  -0.8483  -0.8348  -0.8257  -0.8004
    -0.7792  -0.7595  -0.7540  -0.7161  -0.7042  -0.6755  -0.6616  -0.6455
    -0.6124  -0.6076  -0.6001  -0.5939  -0.5916  -0.5823  -0.5723  -0.5708
    -0.5659  -0.5602  -0.5487  -0.5447  -0.5398  -0.5266  -0.5142  -0.5019
    -0.4968  -0.4726  -0.4557  -0.4344  -0.4243  -0.4179  -0.4083  -0.3978
    -0.3944  -0.3925  -0.3907  -0.3867  -0.3849  -0.3762  -0.3747  -0.3689
    -0.3651  -0.3613  -0.3604  -0.3484  -0.3447  -0.3410  -0.3388  -0.3323
     0.2904   0.5117   0.5237   0.5519   0.5796   0.6012   0.6242   0.6458
     0.6485   0.6509   0.6594   0.6946   0.6974   0.7308   0.7485   0.7579
     0.7928   0.8156   0.8171   0.8438   0.8589   0.8639   0.8770   0.8829
     0.8869   0.8943   0.8960   0.9001   1.0140   1.3575   1.5405   1.6221
     1.6986   1.7355   1.7729   1.9076   1.9490   1.9927   1.9960   2.0293
     2.0474   2.0744   2.1103   2.1269   2.1505   2.1575   2.1642   2.1716
     2.1783   2.1950   2.2052   2.2082   2.2142   2.2162   2.2228   2.2257
     2.2298   2.2411   2.2443   2.2514   2.2575   2.2683   2.2876   2.3032
     2.3269   2.3615   2.3706   2.3933   2.4231   2.4348   2.4618   2.4819
     2.4914   2.5045   2.5205   2.5396   2.5421   2.5516   2.5588   2.5669
     2.5716   2.5795   2.5910   2.5947   2.6296   2.6382   2.6589   2.6652
     2.6775   2.6838   2.6975   2.7102   2.7748   2.8324   2.8405   2.8965
     2.9264   2.9491   2.9663   2.9916   3.0063   3.0359   3.0441   3.0488
     3.0507   3.0729   3.0778   3.0847   3.0895   3.1014   3.1178   3.1251
     3.1378   3.1437   3.1476   3.1565   3.1796   3.1819   3.1862   3.2027
     3.2268   3.2384   3.2521   3.2572   3.3066   3.3580   3.3819   3.3997
     3.4272   3.4653   3.4721   3.4809   3.4861   3.4923   3.4989   3.5115
     3.5204   3.5220   3.5346   3.5368   3.5394   3.5455   3.5535   3.5610
     3.5712   3.5900   3.6123   3.6183   3.6354   3.6478   3.6554   3.6693
     3.6770   3.6803   3.6963   3.7012   3.7099   3.7147   3.7193   3.7238
     3.7410   3.7462   3.7585   3.7798   3.8002   3.8158   3.8267   3.8374
     3.8583   3.8615   3.8734   3.8820   3.8891   3.8921   3.9007   3.9063
     3.9980   4.0143   4.0859   4.1048   4.1142   4.1261   4.1289   4.1409
     4.1464   4.1522   4.1577   4.1748   4.1774   4.1811   4.1844   4.1910
     4.2054   4.2131   4.2286   4.2340   4.2476   4.2486   4.2641   4.2677
     4.4071   4.4311   4.4468   4.4566   4.4826   4.4875   4.4970   4.4991
     4.5075   4.5091   4.5141   4.5233   4.6935   4.7054   4.7236   4.7366
     4.7472   4.7671   4.7709   4.7771   4.7912   4.8005   4.8021   4.8049
     4.8096   4.8100   4.8200   4.8272   4.8292   4.8355   4.8414   4.8469
     4.8559   4.8619   4.8774   4.8812   4.8986   4.9035   4.9049   4.9073
     4.9507   4.9658   4.9771   4.9907   5.0023   5.0169   5.0249   5.0397
     5.0809   5.0946   5.1401   5.1545   5.1671   5.1747   5.1852   5.1885
     5.2116   5.2409   5.2475   5.2588   5.4277   5.6502   5.7388   5.8256
     5.8604   5.9628   5.9831   5.9852   5.9980   6.0519   6.9028   7.0109
     7.0964   7.1282   7.1662   7.2150   7.2255   7.3421   7.3563   7.3680
     7.3954   7.4225   7.4466   7.4736   7.4938   7.5291   7.5499   7.5613
     7.5743   7.6284   7.6431   7.6778   7.7048   7.7108   7.7885   7.8162
     7.8527   7.8614   7.8885   7.8971   7.9030   7.9061   7.9114   7.9166
     7.9249   7.9346   7.9433   7.9497   7.9551   7.9644   7.9750   7.9807
     7.9889   7.9962   8.0005   8.0073   8.0164   8.0250   8.0416   8.0444
     8.0819   8.0869   8.1133   8.1169   8.1393   8.2028   8.2120   8.2650
     8.2951   8.3076   8.3514   8.3854   8.4442   8.4534   8.4693   8.4938
     8.5031   8.5099   8.5180   8.5319   8.5368   8.5472   8.5562   8.5699
     8.5892   8.5992   8.6228   8.6403   8.6519   8.6528   8.6643   8.6741
     8.6751   8.6867   8.6894   8.6914

     occupation numbers 
     1.0000   1.0000   1.0000   1.0000   1.0000   1.0000   1.0000   1.0000
     1.0000   1.0000   1.0000   1.0000   1.0000   1.0000   1.0000   1.0000
     1.0000   1.0000   1.0000   1.0000   1.0000   1.0000   1.0000   1.0000
     1.0000   1.0000   1.0000   1.0000   1.0000   1.0000   1.0000   1.0000
     1.0000   1.0000   1.0000   1.0000   1.0000   1.0000   1.0000   1.0000
     1.0000   1.0000   1.0000   1.0000   1.0000   1.0000   1.0000   1.0000
     1.0000   1.0000   1.0000   1.0000   1.0000   1.0000   1.0000   1.0000
     1.0000   1.0000   1.0000   1.0000   1.0000   1.0000   1.0000   1.0000
     1.0000   1.0000   1.0000   1.0000   1.0000   1.0000   1.0000   1.0000
     1.0000   1.0000   1.0000   1.0000   1.0000   1.0000   1.0000   1.0000
     1.0000   1.0000   1.0000   1.0000   1.0000   1.0000   1.0000   1.0000
     1.0000   1.0000   1.0000   1.0000   1.0000   1.0000   1.0000   1.0000
     1.0000   1.0000   1.0000   1.0000   1.0000   1.0000   1.0000   1.0000
     1.0000   1.0000   1.0000   1.0000   1.0000   1.0000   1.0000   1.0000
     1.0000   1.0000   1.0000   1.0000   1.0000   1.0000   1.0000   1.0000
     1.0000   1.0000   1.0000   1.0000   1.0000   1.0000   1.0000   1.0000
     1.0000   1.0000   1.0000   1.0000   1.0000   1.0000   1.0000   1.0000
     1.0000   1.0000   1.0000   1.0000   1.0000   1.0000   1.0000   1.0000
     1.0000   1.0000   1.0000   1.0000   1.0000   1.0000   1.0000   1.0000
     1.0000   1.0000   1.0000   1.0000   1.0000   1.0000   1.0000   1.0000
     1.0000   1.0000   1.0000   1.0000   1.0000   1.0000   1.0000   1.0000
     1.0000   1.0000   1.0000   1.0000   1.0000   1.0000   1.0000   1.0000
     1.0000   1.0000   1.0000   1.0000   1.0000   1.0000   1.0000   1.0000
     1.0000   1.0000   1.0000   1.0000   1.0000   1.0000   1.0000   1.0000
     1.0000   1.0000   1.0000   1.0000   1.0000   1.0000   1.0000   1.0000
     1.0000   1.0000   1.0000   1.0000   1.0000   1.0000   1.0000   1.0000
     1.0000   1.0000   1.0000   1.0000   1.0000   1.0000   1.0000   1.0000
     1.0000   1.0000   1.0000   1.0000   1.0000   1.0000   1.0000   1.0000
     1.0000   1.0000   1.0000   1.0000   1.0000   1.0000   1.0000   1.0000
     1.0000   1.0000   1.0000   1.0000   1.0000   1.0000   1.0000   1.0000
     1.0000   1.0000   1.0000   1.0000   1.0000   1.0000   1.0000   1.0000
     1.0000   1.0000   1.0000   1.0000   1.0000   1.0000   1.0000   1.0000
     1.0000   1.0000   1.0000   1.0000   1.0000   1.0000   1.0000   1.0000
     1.0000   1.0000   1.0000   1.0000   1.0000   1.0000   1.0000   1.0000
     1.0000   1.0000   1.0000   1.0000   1.0000   1.0000   1.0000   1.0000
     1.0000   1.0000   1.0000   1.0000   1.0000   1.0000   1.0000   1.0000
     1.0000   1.0000   1.0000   1.0000   1.0000   1.0000   1.0000   1.0000
     1.0000   1.0000   1.0000   1.0000   1.0000   1.0000   1.0001   1.0001
     1.0001   1.0001   1.0001   1.0001   1.0001   1.0001   1.0001   1.0001
     1.0001   1.0001   1.0001   1.0001   1.0002   1.0002   1.0002   1.0002
     1.0002   1.0002   1.0002   1.0003   1.0003   1.0003   1.0003   1.0003
     1.0003   1.0004   1.0004   1.0005   1.0005   1.0006   1.0007   1.0007
     1.0008   1.0008   1.0009   1.0010   1.0010   1.0010   1.0011   1.0011
     1.0021   1.0023   1.0035   1.0039   1.0041   1.0044   1.0045   1.0048
     1.0050   1.0051   1.0053   1.0058   1.0059   1.0060   1.0061   1.0063
     1.0068   1.0071   1.0077   1.0079   1.0085   1.0086   1.0093   1.0094
     1.0181   1.0200   1.0213   1.0222   1.0247   1.0251   1.0261   1.0263
     1.0271   1.0273   1.0278   1.0288   1.0500   1.0516   1.0541   1.0559
     1.0574   1.0601   1.0607   1.0615   1.0634   1.0646   1.0649   1.0652
     1.0658   1.0659   1.0672   1.0681   1.0684   1.0691   1.0699   1.0705
     1.0716   1.0723   1.0740   1.0745   1.0762   1.0767   1.0769   1.0771
     1.0806   1.0815   1.0821   1.0827   1.0830   1.0833   1.0833   1.0832
     1.0817   1.0807   1.0755   1.0733   1.0710   1.0695   1.0673   1.0666
     1.0610   1.0525   1.0503   1.0465   0.9594   0.7652   0.6708   0.5749
     0.5365   0.4270   0.4062   0.4041   0.3913   0.3392   0.0078   0.0039
     0.0022   0.0017   0.0013   0.0009   0.0009   0.0003   0.0003   0.0003
     0.0002   0.0002   0.0001   0.0001   0.0001   0.0001   0.0001   0.0001
     0.0000   0.0000   0.0000   0.0000   0.0000   0.0000   0.0000   0.0000
     0.0000   0.0000   0.0000   0.0000   0.0000   0.0000   0.0000   0.0000
     0.0000   0.0000   0.0000   0.0000   0.0000   0.0000   0.0000   0.0000
     0.0000   0.0000   0.0000   0.0000   0.0000   0.0000   0.0000   0.0000
     0.0000   0.0000   0.0000   0.0000   0.0000   0.0000   0.0000   0.0000
     0.0000   0.0000   0.0000   0.0000   0.0000   0.0000   0.0000   0.0000
     0.0000   0.0000   0.0000   0.0000   0.0000   0.0000   0.0000   0.0000
     0.0000   0.0000   0.0000   0.0000   0.0000   0.0000   0.0000   0.0000
     0.0000   0.0000   0.0000   0.0000

          k =-0.5000-0.5000-0.5000 (136344 PWs)   bands (ev):

    -6.2579  -5.4734  -5.4405  -5.4232  -5.4043  -5.3862  -5.3817  -5.3590
    -5.0500  -4.7584  -4.7361  -4.6259  -4.5898  -4.5413  -4.5275  -4.5011
    -4.4973  -4.4773  -4.4723  -4.4683  -4.4651  -4.4618  -4.4568  -4.4497
    -4.4492  -4.4442  -4.4373  -4.4360  -4.4335  -4.4309  -4.4251  -4.4238
    -3.9368  -3.9238  -3.9058  -3.8275  -3.7541  -3.7472  -3.7263  -3.7095
    -3.6999  -3.6844  -3.6800  -3.6770  -3.6754  -3.6672  -3.6646  -3.6606
    -3.6571  -3.6565  -3.6546  -3.6536  -3.6494  -3.6475  -3.6298  -3.6271
    -3.4644  -3.4611  -3.4582  -3.4491  -3.0112  -2.9952  -2.9737  -2.9452
    -2.8097  -2.7790  -2.7647  -2.7573  -2.7503  -2.7415  -2.7380  -2.7271
    -2.7261  -2.7238  -2.7196  -2.7166  -2.7152  -2.7060  -2.7045  -2.7020
    -2.6984  -2.6969  -2.6922  -2.6885  -2.5955  -2.5892  -2.5843  -2.5599
    -2.5559  -2.5505  -2.5446  -2.5407  -2.5399  -2.5351  -2.5295  -2.5237
    -2.5166  -2.5158  -2.5133  -2.5120  -2.5106  -2.5065  -2.5022  -2.5004
    -2.4960  -2.4947  -2.4930  -2.4827  -1.5672  -1.2512  -1.0443  -0.9365
    -0.8891  -0.8466  -0.8353  -0.8051  -0.7862  -0.7613  -0.7607  -0.7499
    -0.7372  -0.7222  -0.7139  -0.7082  -0.6968  -0.6882  -0.6845  -0.6819
    -0.6783  -0.6770  -0.6726  -0.6684  -0.6663  -0.6656  -0.6578  -0.6543
    -0.5315  -0.5241  -0.5127  -0.5013  -0.4866  -0.4846  -0.4473  -0.4414
[...]
     atom   30 type  1   force =     0.00000338   -0.00000238   -0.00000538
     atom   31 type  1   force =     0.00001121    0.00000321    0.00000188
     atom   32 type  1   force =    -0.00000531   -0.00000130   -0.00000634
     atom   33 type  1   force =     0.00000420    0.00000461    0.00000064
     atom   34 type  1   force =    -0.00000095   -0.00000141   -0.00000748
     atom   35 type  1   force =     0.00000860    0.00000719    0.00000519
     atom   36 type  1   force =     0.00001070    0.00000504    0.00000487
     atom   37 type  1   force =     0.00000833    0.00000306    0.00000552
     atom   38 type  1   force =     0.00000999    0.00000842    0.00000445
     atom   39 type  1   force =     0.00000473    0.00000824    0.00000155
     atom   40 type  1   force =     0.00000602    0.00001039    0.00000960
     atom   41 type  1   force =     0.00000481    0.00000481    0.00000661
     atom   42 type  1   force =     0.00000358    0.00001019    0.00000542
     atom   43 type  1   force =     0.00000469    0.00000921    0.00000216
     atom   44 type  1   force =     0.00000381    0.00000721   -0.00000050
     atom   45 type  1   force =    -0.00000300    0.00000009   -0.00000646
     atom   46 type  1   force =     0.00000424    0.00000525    0.00000237
     atom   47 type  1   force =     0.00000012   -0.00000142   -0.00000290
     atom   48 type  1   force =     0.00000021    0.00000442   -0.00000152
     atom   49 type  1   force =    -0.00000148   -0.00000152   -0.00000790
     atom   50 type  1   force =    -0.00000695   -0.00000158   -0.00000528
     atom   51 type  1   force =     0.00000072    0.00000036    0.00000247
     atom   52 type  1   force =     0.00000346    0.00000030   -0.00000022
     atom   53 type  1   force =     0.00000617    0.00000072    0.00000504
     atom   54 type  1   force =     0.00000386    0.00000439    0.00000292
     atom   55 type  1   force =     0.00000682    0.00000246    0.00000507
     atom   56 type  1   force =    -0.00000442    0.00000172    0.00000242
     atom   57 type  1   force =     0.00000259   -0.00000229   -0.00000021
     atom   58 type  1   force =     0.00000071    0.00000520    0.00000116
     atom   59 type  1   force =     0.00000595    0.00000018    0.00000360
     atom   60 type  1   force =     0.00000630   -0.00000196    0.00000031
     atom   61 type  1   force =     0.00000471   -0.00000730   -0.00000254
     atom   62 type  1   force =     0.00000647   -0.00000100    0.00000563
     atom   63 type  1   force =     0.00000104   -0.00000580   -0.00000126
     atom   64 type  1   force =     0.00000381   -0.00000662    0.00000213
     atom   65 type  1   force =     0.00000507   -0.00001098    0.00000002
     atom   66 type  1   force =     0.00000356   -0.00000284    0.00000119
     atom   67 type  1   force =     0.00000109   -0.00000769   -0.00000482
     atom   68 type  1   force =     0.00000162   -0.00000887   -0.00000175
     atom   69 type  1   force =     0.00000234   -0.00000590   -0.00000217
     atom   70 type  1   force =    -0.00000170   -0.00000247   -0.00000878
     atom   71 type  1   force =     0.00000195   -0.00000091   -0.00000352
     atom   72 type  1   force =    -0.00000339   -0.00000734   -0.00000300
     atom   73 type  1   force =     0.00000217   -0.00000314    0.00000081
     atom   74 type  1   force =     0.00000587    0.00000029    0.00000441
     atom   75 type  1   force =     0.00000584   -0.00000017    0.00000267
     atom   76 type  1   force =     0.00000773    0.00000058    0.00000514
     atom   77 type  1   force =     0.00000535   -0.00000010    0.00000310
     atom   78 type  1   force =     0.00000685   -0.00000253   -0.00000051
     atom   79 type  1   force =     0.00000167   -0.00000054   -0.00000903
     atom   80 type  1   force =     0.00000634   -0.00000079   -0.00000210
     atom   81 type  1   force =     0.00000993    0.00000356   -0.00000241
     atom   82 type  1   force =     0.00000405   -0.00000619   -0.00000461
     atom   83 type  1   force =     0.00000318   -0.00000251   -0.00000483
     atom   84 type  1   force =     0.00000224    0.00000331   -0.00000874
     atom   85 type  1   force =    -0.00000596    0.00000363   -0.00001088
     atom   86 type  1   force =    -0.00000161   -0.00000547   -0.00000466
     atom   87 type  1   force =    -0.00000260   -0.00000422   -0.00000018
     atom   88 type  1   force =     0.00000425    0.00000227   -0.00000154
     atom   89 type  1   force =    -0.00000132    0.00000569   -0.00000194
     atom   90 type  1   force =     0.00000173   -0.00000505   -0.00000042
     atom   91 type  1   force =     0.00000096   -0.00000142    0.00000340
     atom   92 type  1   force =    -0.00000252    0.00000070    0.00000158
     atom   93 type  1   force =    -0.00000060    0.00000092    0.00000824
     atom   94 type  1   force =     0.00000298   -0.00000250    0.00000548
     atom   95 type  1   force =     0.00000374    0.00000029    0.00000903
     atom   96 type  1   force =     0.00000157    0.00000263    0.00000403
     atom   97 type  1   force =     0.00000236    0.00000070    0.00000448
     atom   98 type  1   force =     0.00000317   -0.00000152    0.00000064
     atom   99 type  1   force =     0.00000925   -0.00000048    0.00000397
     atom  100 type  1   force =     0.00000720   -0.00000061    0.00000669
     atom  101 type  1   force =     0.00000459    0.00000093    0.00000305
     atom  102 type  1   force =     0.00000680    0.00000094    0.00000168
     atom  103 type  1   force =    -0.00000280    0.00000009   -0.00000550
     atom  104 type  1   force =     0.00001014   -0.00000054    0.00000414
     atom  105 type  1   force =     0.00000806    0.00000020    0.00000369
     atom  106 type  1   force =     0.00001092    0.00000579   -0.00000032
     atom  107 type  1   force =     0.00000159    0.00000431   -0.00000395
     atom  108 type  1   force =    -0.00000096    0.00000110   -0.00000389
     atom  109 type  1   force =    -0.00000825    0.00000168   -0.00000680
     atom  110 type  1   force =    -0.00000523    0.00000563   -0.00000676
     atom  111 type  1   force =    -0.00000816    0.00000417   -0.00000360
     atom  112 type  1   force =     0.00000134    0.00000450   -0.00000026
     atom  113 type  1   force =    -0.00000495    0.00000190   -0.00000415
     atom  114 type  1   force =    -0.00000090    0.00000731    0.00000029
     atom  115 type  1   force =    -0.00000454    0.00000211   -0.00000147
     atom  116 type  1   force =    -0.00000606    0.00000346   -0.00000276
     atom  117 type  1   force =     0.00000021    0.00000412    0.00000305
     atom  118 type  1   force =     0.00000095    0.00000028    0.00000589
     atom  119 type  1   force =     0.00000531   -0.00000063    0.00000886
     atom  120 type  1   force =    -0.00000192   -0.00000080   -0.00000408
     atom  121 type  1   force =     0.00000444    0.00000089    0.00000158
     atom  122 type  1   force =     0.00000615    0.00000077    0.00000088
     atom  123 type  1   force =     0.00000897    0.00000167    0.00000453
     atom  124 type  1   force =     0.00000715   -0.00000062    0.00000549
     atom  125 type  1   force =     0.00000341   -0.00000116    0.00000359
     atom  126 type  1   force =     0.00000663    0.00000032    0.00000315
     atom  127 type  1   force =    -0.00000080   -0.00000007   -0.00000381
     atom  128 type  1   force =     0.00000684    0.00000114    0.00000480
     atom  129 type  1   force =     0.00000424   -0.00000379   -0.00000165
     atom  130 type  1   force =     0.00000611    0.00000151    0.00000455
     atom  131 type  1   force =    -0.00000013   -0.00000320   -0.00000238
     atom  132 type  1   force =     0.00000092   -0.00000354   -0.00000451
     atom  133 type  1   force =    -0.00000296   -0.00000570   -0.00000765
     atom  134 type  1   force =    -0.00000550   -0.00000007   -0.00000442
     atom  135 type  1   force =    -0.00000342   -0.00000064   -0.00000149
     atom  136 type  1   force =     0.00000144   -0.00000705   -0.00000291
     atom  137 type  1   force =    -0.00000013   -0.00000642   -0.00000211
     atom  138 type  1   force =    -0.00000260   -0.00000214   -0.00000530
     atom  139 type  1   force =    -0.00000014   -0.00000117   -0.00000256
     atom  140 type  1   force =    -0.00000016   -0.00000375   -0.00000084
     atom  141 type  1   force =     0.00000185   -0.00000472    0.00000446
     atom  142 type  1   force =     0.00000382    0.00000164    0.00000210
     atom  143 type  1   force =     0.00000500    0.00000033    0.00000530
     atom  144 type  1   force =     0.00000306   -0.00000259   -0.00000227
     atom  145 type  1   force =     0.00000549   -0.00000108    0.00000330
     atom  146 type  1   force =    -0.00000081   -0.00000199    0.00000367
     atom  147 type  1   force =    -0.00000727    0.00000367    0.00000260
     atom  148 type  1   force =    -0.00000990    0.00000514    0.00000610
     atom  149 type  1   force =    -0.00000966   -0.00000022   -0.00000205
     atom  150 type  1   force =    -0.00000896    0.00000017   -0.00000209
     atom  151 type  1   force =    -0.00000744   -0.00000192   -0.00000920
     atom  152 type  1   force =    -0.00000072    0.00000032   -0.00000611
     atom  153 type  1   force =    -0.00000917   -0.00000112   -0.00001322
     atom  154 type  1   force =    -0.00000358   -0.00000470   -0.00001153
     atom  155 type  1   force =    -0.00000582   -0.00000437   -0.00001109
     atom  156 type  1   force =    -0.00000755   -0.00000288   -0.00001374
     atom  157 type  1   force =    -0.00000281   -0.00000165   -0.00000837
     atom  158 type  1   force =    -0.00000407   -0.00000667   -0.00000368
     atom  159 type  1   force =    -0.00000223   -0.00000599    0.00000015
     atom  160 type  1   force =    -0.00000701   -0.00000068   -0.00000568
     atom  161 type  1   force =    -0.00000625    0.00000089    0.00000228
     atom  162 type  1   force =    -0.00000308   -0.00000617    0.00000452
     atom  163 type  1   force =    -0.00000413   -0.00000346    0.00001031
     atom  164 type  1   force =    -0.00000635   -0.00000192    0.00000823
     atom  165 type  1   force =    -0.00000455    0.00000536    0.00000970
     atom  166 type  1   force =    -0.00001033   -0.00000633    0.00000643
     atom  167 type  1   force =    -0.00000839    0.00000324    0.00000733
     atom  168 type  1   force =    -0.00000020   -0.00000035    0.00001121
     atom  169 type  1   force =    -0.00000438    0.00000181    0.00001174
     atom  170 type  1   force =     0.00000177   -0.00000098    0.00000521
     atom  171 type  1   force =    -0.00000624   -0.00000250   -0.00000206
     atom  172 type  1   force =    -0.00000803   -0.00000117    0.00000055
     atom  173 type  1   force =    -0.00001000   -0.00000076   -0.00000499
     atom  174 type  1   force =    -0.00001022   -0.00000244   -0.00000919
     atom  175 type  1   force =    -0.00000772   -0.00000237   -0.00001150
     atom  176 type  1   force =    -0.00000577   -0.00000039   -0.00000378
     atom  177 type  1   force =    -0.00001122    0.00000249   -0.00000868
     atom  178 type  1   force =    -0.00000946    0.00000110   -0.00001299
     atom  179 type  1   force =    -0.00001123    0.00000234   -0.00000896
     atom  180 type  1   force =    -0.00000933    0.00000333   -0.00000811
     atom  181 type  1   force =     0.00000046    0.00000711    0.00000353
     atom  182 type  1   force =    -0.00000475    0.00000252   -0.00000115
     atom  183 type  1   force =     0.00000391    0.00001033    0.00000718
     atom  184 type  1   force =    -0.00000991    0.00000486   -0.00000437
     atom  185 type  1   force =    -0.00000135    0.00000682    0.00000379
     atom  186 type  1   force =    -0.00000430    0.00000188    0.00000513
     atom  187 type  1   force =    -0.00000045    0.00000421    0.00001072
     atom  188 type  1   force =     0.00000487    0.00001005    0.00000645
     atom  189 type  1   force =     0.00000277    0.00000387    0.00000103
     atom  190 type  1   force =    -0.00000433    0.00000414    0.00001104
     atom  191 type  1   force =    -0.00000560    0.00000108    0.00000368
     atom  192 type  1   force =     0.00000195    0.00000262    0.00000904
     atom  193 type  1   force =    -0.00000299    0.00000072    0.00000474
     atom  194 type  1   force =    -0.00000090    0.00000016    0.00000431
     atom  195 type  1   force =    -0.00000723    0.00000073    0.00000017
     atom  196 type  1   force =    -0.00001194   -0.00000195    0.00000015
     atom  197 type  1   force =    -0.00000917   -0.00000014    0.00000340
     atom  198 type  1   force =    -0.00001229    0.00000366   -0.00000609
     atom  199 type  1   force =    -0.00000573    0.00000380   -0.00000287
     atom  200 type  1   force =    -0.00000289   -0.00000107   -0.00000261
     atom  201 type  1   force =    -0.00000750   -0.00000091   -0.00000728
     atom  202 type  1   force =    -0.00000889    0.00000193   -0.00000828
     atom  203 type  1   force =    -0.00000606    0.00000139   -0.00000454
     atom  204 type  1   force =    -0.00000629   -0.00000005   -0.00000614
     atom  205 type  1   force =    -0.00000224   -0.00000507   -0.00000528
     atom  206 type  1   force =     0.00000164    0.00000244    0.00000535
     atom  207 type  1   force =     0.00000268   -0.00000487    0.00000460
     atom  208 type  1   force =    -0.00000539   -0.00000308   -0.00000227
     atom  209 type  1   force =    -0.00000497   -0.00000700    0.00000158
     atom  210 type  1   force =    -0.00000149    0.00000257    0.00000247
     atom  211 type  1   force =    -0.00000273   -0.00000137    0.00000415
     atom  212 type  1   force =    -0.00000102   -0.00000587    0.00000265
     atom  213 type  1   force =    -0.00000365   -0.00000932    0.00000220
     atom  214 type  1   force =    -0.00000119   -0.00000220    0.00000246
     atom  215 type  1   force =    -0.00000602   -0.00000452   -0.00000268
     atom  216 type  1   force =    -0.00000141   -0.00000091    0.00000629
     atom  217 type  1   force =    -0.00000833   -0.00000184    0.00000536
     atom  218 type  2   force =    -0.00000093   -0.00000073    0.00000265
     atom  219 type  2   force =    -0.00000131    0.00000053    0.00000155
     atom  220 type  2   force =     0.00000211   -0.00000006   -0.00000134
     atom  221 type  2   force =     0.00000135    0.00000150    0.00000176
     atom  222 type  2   force =     0.00000147    0.00000183    0.00000208

     Total force =     0.038607     Total SCF correction =     0.000127


     Computing stress (Cartesian axis) and pressure

          total   stress  (Ry/bohr**3)                   (kbar)     P=    0.88
   0.00000702  -0.00000560   0.00000033          1.03     -0.82      0.05
  -0.00000560   0.00000449  -0.00000414         -0.82      0.66     -0.61
   0.00000033  -0.00000414   0.00000644          0.05     -0.61      0.95

     kinetic stress (kbar)   2251.82     -0.61      0.02
                               -0.61   2251.68     -0.17
                                0.02     -0.17   2251.89

     local   stress (kbar)  -1204.73     -2.54     -5.22
                               -2.54  -1204.17      6.01
                               -5.22      6.01  -1203.34

     nonloc. stress (kbar)   2556.43     -0.30      0.24
                               -0.30   2556.64      0.19
                                0.24      0.19   2556.73

     hartree stress (kbar)    201.77      1.10      1.53
                                1.10    201.86     -1.89
                                1.53     -1.89    201.06

     exc-cor stress (kbar)   -798.70      0.01      0.01
                                0.01   -798.70     -0.01
                                0.01     -0.01   -798.69

     corecor stress (kbar)      0.00      0.00      0.00
                                0.00      0.00      0.00
                                0.00      0.00      0.00

     ewald   stress (kbar)  -3005.56      1.52      3.48
                                1.52  -3006.66     -4.73
                                3.48     -4.73  -3006.69

     hubbard stress (kbar)      0.00      0.00      0.00
                                0.00      0.00      0.00
                                0.00      0.00      0.00

     london  stress (kbar)      0.00      0.00      0.00
                                0.00      0.00      0.00
                                0.00      0.00      0.00

     DFT-D3  stress (kbar)      0.00      0.00      0.00
                                0.00      0.00      0.00
                                0.00      0.00      0.00

     XDM     stress (kbar)      0.00      0.00      0.00
                                0.00      0.00      0.00
                                0.00      0.00      0.00

     dft-nl  stress (kbar)      0.00      0.00      0.00
                                0.00      0.00      0.00
                                0.00      0.00      0.00

     TS-vdW  stress (kbar)      0.00      0.00      0.00
                                0.00      0.00      0.00
                                0.00      0.00      0.00



     Writing output data file interstitial_optimize4.save

     init_run     :    252.34s CPU    256.80s WALL (       1 calls)
     electrons    :  10683.77s CPU  10935.79s WALL (       1 calls)
     forces       :     90.40s CPU     91.19s WALL (       1 calls)
     stress       :    504.15s CPU    508.33s WALL (       1 calls)

     Called by init_run:
     wfcinit      :    248.50s CPU    252.88s WALL (       1 calls)
     wfcinit:atom :      0.67s CPU      1.45s WALL (       8 calls)
     wfcinit:wfcr :    235.82s CPU    238.48s WALL (       8 calls)
     potinit      :      0.45s CPU      0.47s WALL (       1 calls)

     Called by electrons:
     c_bands      :   9962.98s CPU  10203.37s WALL (      22 calls)
     sum_band     :    713.68s CPU    722.69s WALL (      22 calls)
     v_of_rho     :      5.97s CPU      6.05s WALL (      22 calls)
     v_h          :      0.37s CPU      0.37s WALL (      22 calls)
     v_xc         :      5.61s CPU      5.68s WALL (      22 calls)
     mix_rho      :      1.14s CPU      1.36s WALL (      22 calls)

     Called by c_bands:
     init_us_2    :     24.97s CPU     27.12s WALL (     376 calls)
     cegterg      :   9900.16s CPU  10089.84s WALL (     176 calls)

     Called by sum_band:

     Called by *egterg:
     h_psi        :   5141.16s CPU   5182.23s WALL (    1085 calls)
     g_psi        :      9.82s CPU      9.86s WALL (     901 calls)
     cdiaghg      :   1950.81s CPU   1958.57s WALL (    1069 calls)
     cegterg:over :   1237.39s CPU   1245.98s WALL (     901 calls)
     cegterg:upda :    752.67s CPU    762.39s WALL (     901 calls)
     cegterg:last :    470.27s CPU    475.16s WALL (     176 calls)

     Called by h_psi:
     h_psi:pot    :   5120.73s CPU   5159.31s WALL (    1085 calls)
     h_psi:calbec :   1069.45s CPU   1080.25s WALL (    1085 calls)
     vloc_psi     :   3023.36s CPU   3045.54s WALL (    1085 calls)
     add_vuspsi   :   1027.91s CPU   1033.50s WALL (    1085 calls)

     General routines
     calbec       :   1179.12s CPU   1190.40s WALL (    1125 calls)
     fft          :      3.33s CPU      3.35s WALL (     251 calls)
     fftw         :   3328.69s CPU   3352.28s WALL (  531230 calls)

     Parallel routines
     fft_scatt_xy :    479.19s CPU    482.38s WALL (  531481 calls)
     fft_scatt_yz :    734.24s CPU    740.35s WALL (  531481 calls)

     PWSCF        :     3h12m CPU        3h16m WALL


   This run was terminated on:  12:11:20   7Nov2020            

=------------------------------------------------------------------------------=
   JOB DONE.
=------------------------------------------------------------------------------=
