
     Program PWSCF v.6.2 (svn rev. 14038) starts on  7Nov2020 at  8:23:43 

     This program is part of the open-source Quantum ESPRESSO suite
     for quantum simulation of materials; please cite
         "P. Giannozzi et al., J. Phys.:Condens. Matter 21 395502 (2009);
         "P. Giannozzi et al., J. Phys.:Condens. Matter 29 465901 (2017);
          URL http://www.quantum-espresso.org", 
     in publications or presentations arising from this work. More details at
     http://www.quantum-espresso.org/quote

     Parallel version (MPI), running on     8 processors

     MPI processes distributed on     1 nodes
     R & G space division:  proc/nbgrp/npool/nimage =       8
     Waiting for input...
     Reading input from standard input
Warning: card &IONS ignored
Warning: card / ignored

     Current dimensions of program PWSCF are:
     Max number of different atomic species (ntypx) = 10
     Max number of k-points (npk) =  40000
     Max angular momentum in pseudopotentials (lmaxx) =  3

     Subspace diagonalization in iterative solution of the eigenvalue problem:
     a serial algorithm will be used


     Parallelization info
     --------------------
     sticks:   dense  smooth     PW     G-vecs:    dense   smooth      PW
     Min         712     712    185                40336    40336    5464
     Max         714     714    187                40337    40337    5470
     Sum        5705    5705   1489               322693   322693   43723



     bravais-lattice index     =            0
     lattice parameter (alat)  =      20.6245  a.u.
     unit-cell volume          =    8773.0332 (a.u.)^3
     number of atoms/cell      =           72
     number of atomic types    =            2
     number of electrons       =       264.00
     number of Kohn-Sham states=          158
     kinetic-energy cutoff     =      42.0000  Ry
     charge density cutoff     =     168.0000  Ry
     convergence threshold     =      1.0E-08
     mixing beta               =       0.3000
     number of iterations used =            8  plain     mixing
     Exchange-correlation      = SLA-PW-PBX-PBC ( 1  4  3  4 0 0)

     celldm(1)=  20.624492  celldm(2)=   0.000000  celldm(3)=   0.000000
     celldm(4)=   0.000000  celldm(5)=   0.000000  celldm(6)=   0.000000

     crystal axes: (cart. coord. in units of alat)
               a(1) = (   1.000000   0.000000   0.000000 )  
               a(2) = (   0.000000   1.000000   0.000000 )  
               a(3) = (   0.000000   0.000000   1.000000 )  

     reciprocal axes: (cart. coord. in units 2 pi/alat)
               b(1) = (  1.000000  0.000000  0.000000 )  
               b(2) = (  0.000000  1.000000  0.000000 )  
               b(3) = (  0.000000  0.000000  1.000000 )  


     PseudoPot. # 1 for Si read from file:
     ./Si.pbe-hgh.UPF
     MD5 check sum: 9a9f0f6e09139bfdb36b03ff6bc35900
     Pseudo is Norm-conserving, Zval =  4.0
     Generated in analytical, separable form
     Using radial grid of 1141 points,  3 beta functions with: 
                l(1) =   0
                l(2) =   0
                l(3) =   1

     PseudoPot. # 2 for H  read from file:
     ./H.pbe-hgh.UPF
     MD5 check sum: 5f350582108a937bec95f27f5610ab08
     Pseudo is Norm-conserving, Zval =  1.0
     Generated in analytical, separable form
     Using radial grid of  929 points,  0 beta functions with: 

     atomic species   valence    mass     pseudopotential
        Si             4.00    28.08000     Si( 1.00)
        H              1.00     1.00784     H ( 1.00)

     No symmetry found


                                    s                        frac. trans.

      isym =  1     identity                                     

 cryst.   s( 1) = (     1          0          0      )
                  (     0          1          0      )
                  (     0          0          1      )

 cart.    s( 1) = (  1.0000000  0.0000000  0.0000000 )
                  (  0.0000000  1.0000000  0.0000000 )
                  (  0.0000000  0.0000000  1.0000000 )


   Cartesian axes

     site n.     atom                  positions (alat units)
         1           Si  tau(   1) = (   0.9001930   0.4391160   0.1564500  )
         2           Si  tau(   2) = (   0.5892230   0.2009210   0.9233330  )
         3           Si  tau(   3) = (   0.7002580   0.7037350   0.5752770  )
         4           Si  tau(   4) = (   0.1974090   0.6689700   0.6456800  )
         5           Si  tau(   5) = (   0.7167580   0.9270390   0.0827543  )
         6           Si  tau(   6) = (   0.1847560   0.8764980   0.7185130  )
         7           Si  tau(   7) = (   0.0912775   0.3030330   0.6891040  )
         8           Si  tau(   8) = (   0.5302150   0.4922730   0.3300870  )
         9           Si  tau(   9) = (   0.0400789   0.6004090   0.1666090  )
        10           Si  tau(  10) = (   0.3002990   0.9312260   0.4405720  )
        11           Si  tau(  11) = (   0.0013330   0.3158170   0.4965470  )
        12           Si  tau(  12) = (   0.1581040   0.8700700   0.2880630  )
        13           Si  tau(  13) = (   0.4420380   0.3866360   0.6578710  )
        14           Si  tau(  14) = (  -0.0008349   0.4650230   0.8033910  )
        15           Si  tau(  15) = (   0.3693150   0.0749614   0.5889740  )
        16           Si  tau(  16) = (   0.1818310   0.5758890   0.8328060  )
        17           Si  tau(  17) = (   0.5501410   0.7319220   0.8527030  )
        18           Si  tau(  18) = (   0.7999610   0.3689860   0.4574070  )
        19           Si  tau(  19) = (   0.5241200   0.2837850   0.2558100  )
        20           Si  tau(  20) = (   0.4387780   0.9408710   0.2724030  )
        21           Si  tau(  21) = (   0.8708930   0.2239430   0.1857260  )
        22           Si  tau(  22) = (   0.0137258   0.7557080   0.0195987  )
        23           Si  tau(  23) = (   0.7143320   0.2167190   0.3304480  )
        24           Si  tau(  24) = (   0.8348020   0.4269660   0.9491840  )
        25           Si  tau(  25) = (   0.0238752   0.0473137   0.2455510  )
        26           Si  tau(  26) = (   0.8697880   0.5931320   0.6777590  )
        27           Si  tau(  27) = (   0.1972110   0.7775470   0.9094050  )
        28           Si  tau(  28) = (   0.7121500   0.6192940   0.9488990  )
        29           Si  tau(  29) = (   0.5390630   0.3667740   0.0550219  )
        30           Si  tau(  30) = (   0.3569580   0.6388370   0.5139440  )
        31           Si  tau(  31) = (   0.7014970   0.7216420   0.1394920  )
        32           Si  tau(  32) = (   0.1163730   0.1624870   0.8512510  )
        33           Si  tau(  33) = (   0.6199730   0.8679570   0.3752100  )
        34           Si  tau(  34) = (   0.4324860   0.0502501   0.9629230  )
        35           Si  tau(  35) = (   0.7250460   0.4244810   0.6469900  )
        36           Si  tau(  36) = (   0.2808690   0.2700160   0.5737350  )
        37           Si  tau(  37) = (   0.1643560   0.2815960   0.0268257  )
        38           Si  tau(  38) = (   0.9309710   0.0627512   0.9015410  )
        39           Si  tau(  39) = (   0.3691240   0.4803640   0.8337300  )
        40           Si  tau(  40) = (   0.7581460   0.5152170   0.3065130  )
        41           Si  tau(  41) = (   0.1875970   0.3282960   0.3861010  )
        42           Si  tau(  42) = (   0.8770170   0.7211450   0.8574470  )
        43           Si  tau(  43) = (   0.5502400   0.5432100   0.5470020  )
        44           Si  tau(  44) = (   0.6025910   0.2571910   0.7191620  )
        45           Si  tau(  45) = (   0.6471110   0.8718100   0.7129820  )
        46           Si  tau(  46) = (   0.3025160   0.5089410   0.3517730  )
        47           Si  tau(  47) = (   0.7976340   0.2088730   0.9792570  )
        48           Si  tau(  48) = (   0.3945400   0.1214980   0.1727820  )
        49           Si  tau(  49) = (   0.0119188   0.6907460   0.5476870  )
        50           Si  tau(  50) = (   0.9334300   0.0205868   0.4461990  )
        51           Si  tau(  51) = (   0.3336920   0.7781300   0.1674830  )
        52           Si  tau(  52) = (   0.9305410   0.9431270   0.0806136  )
        53           Si  tau(  53) = (   0.0074123   0.7211830   0.3389770  )
        54           Si  tau(  54) = (   0.2502640   0.5794510   0.1603770  )
        55           Si  tau(  55) = (   0.5836000   0.0639229   0.6223170  )
        56           Si  tau(  56) = (   0.8515940   0.9143960   0.7673600  )
        57           Si  tau(  57) = (   0.5203450   0.6966850   0.2484760  )
        58           Si  tau(  58) = (   0.1917990   0.1862820   0.2173910  )
        59           Si  tau(  59) = (   0.2916070   0.0506412   0.7915710  )
        60           Si  tau(  60) = (   0.7879150   0.7206850   0.3628500  )
        61           Si  tau(  61) = (   0.7163510   0.0446384   0.4517990  )
        62           Si  tau(  62) = (   0.3988730   0.8313810   0.9709130  )
        63           Si  tau(  63) = (   0.3268610   0.4237750   0.0322761  )
        64           Si  tau(  64) = (   0.9979290   0.9005960   0.6122460  )
        65           H   tau(  65) = (   0.0506936   0.3608940   0.0477671  )
        66           H   tau(  66) = (   0.4624990   0.5995140   0.8370720  )
        67           H   tau(  67) = (   0.5413210   0.8365740   0.4845600  )
        68           H   tau(  68) = (   0.3503270   0.7929620   0.4763040  )
        69           H   tau(  69) = (   0.9733970   0.1640080   0.4813790  )
        70           H   tau(  70) = (   0.5785700   0.4995270   0.0070563  )
        71           H   tau(  71) = (   0.6809600   0.3875460   0.0805911  )
        72           H   tau(  72) = (   0.6875530   0.0111819   0.1886180  )

   Crystallographic axes

     site n.     atom                  positions (cryst. coord.)
         1           Si  tau(   1) = (  0.9001930  0.4391160  0.1564500  )
         2           Si  tau(   2) = (  0.5892230  0.2009210  0.9233330  )
         3           Si  tau(   3) = (  0.7002580  0.7037350  0.5752770  )
         4           Si  tau(   4) = (  0.1974090  0.6689700  0.6456800  )
         5           Si  tau(   5) = (  0.7167580  0.9270390  0.0827543  )
         6           Si  tau(   6) = (  0.1847560  0.8764980  0.7185130  )
         7           Si  tau(   7) = (  0.0912775  0.3030330  0.6891040  )
         8           Si  tau(   8) = (  0.5302150  0.4922730  0.3300870  )
         9           Si  tau(   9) = (  0.0400789  0.6004090  0.1666090  )
        10           Si  tau(  10) = (  0.3002990  0.9312260  0.4405720  )
        11           Si  tau(  11) = (  0.0013330  0.3158170  0.4965470  )
        12           Si  tau(  12) = (  0.1581040  0.8700700  0.2880630  )
        13           Si  tau(  13) = (  0.4420380  0.3866360  0.6578710  )
        14           Si  tau(  14) = ( -0.0008349  0.4650230  0.8033910  )
        15           Si  tau(  15) = (  0.3693150  0.0749614  0.5889740  )
        16           Si  tau(  16) = (  0.1818310  0.5758890  0.8328060  )
        17           Si  tau(  17) = (  0.5501410  0.7319220  0.8527030  )
        18           Si  tau(  18) = (  0.7999610  0.3689860  0.4574070  )
        19           Si  tau(  19) = (  0.5241200  0.2837850  0.2558100  )
        20           Si  tau(  20) = (  0.4387780  0.9408710  0.2724030  )
        21           Si  tau(  21) = (  0.8708930  0.2239430  0.1857260  )
        22           Si  tau(  22) = (  0.0137258  0.7557080  0.0195987  )
        23           Si  tau(  23) = (  0.7143320  0.2167190  0.3304480  )
        24           Si  tau(  24) = (  0.8348020  0.4269660  0.9491840  )
        25           Si  tau(  25) = (  0.0238752  0.0473137  0.2455510  )
        26           Si  tau(  26) = (  0.8697880  0.5931320  0.6777590  )
        27           Si  tau(  27) = (  0.1972110  0.7775470  0.9094050  )
        28           Si  tau(  28) = (  0.7121500  0.6192940  0.9488990  )
        29           Si  tau(  29) = (  0.5390630  0.3667740  0.0550219  )
        30           Si  tau(  30) = (  0.3569580  0.6388370  0.5139440  )
        31           Si  tau(  31) = (  0.7014970  0.7216420  0.1394920  )
        32           Si  tau(  32) = (  0.1163730  0.1624870  0.8512510  )
        33           Si  tau(  33) = (  0.6199730  0.8679570  0.3752100  )
        34           Si  tau(  34) = (  0.4324860  0.0502501  0.9629230  )
        35           Si  tau(  35) = (  0.7250460  0.4244810  0.6469900  )
        36           Si  tau(  36) = (  0.2808690  0.2700160  0.5737350  )
        37           Si  tau(  37) = (  0.1643560  0.2815960  0.0268257  )
        38           Si  tau(  38) = (  0.9309710  0.0627512  0.9015410  )
        39           Si  tau(  39) = (  0.3691240  0.4803640  0.8337300  )
        40           Si  tau(  40) = (  0.7581460  0.5152170  0.3065130  )
        41           Si  tau(  41) = (  0.1875970  0.3282960  0.3861010  )
        42           Si  tau(  42) = (  0.8770170  0.7211450  0.8574470  )
        43           Si  tau(  43) = (  0.5502400  0.5432100  0.5470020  )
        44           Si  tau(  44) = (  0.6025910  0.2571910  0.7191620  )
        45           Si  tau(  45) = (  0.6471110  0.8718100  0.7129820  )
        46           Si  tau(  46) = (  0.3025160  0.5089410  0.3517730  )
        47           Si  tau(  47) = (  0.7976340  0.2088730  0.9792570  )
        48           Si  tau(  48) = (  0.3945400  0.1214980  0.1727820  )
        49           Si  tau(  49) = (  0.0119188  0.6907460  0.5476870  )
        50           Si  tau(  50) = (  0.9334300  0.0205868  0.4461990  )
        51           Si  tau(  51) = (  0.3336920  0.7781300  0.1674830  )
        52           Si  tau(  52) = (  0.9305410  0.9431270  0.0806136  )
        53           Si  tau(  53) = (  0.0074123  0.7211830  0.3389770  )
        54           Si  tau(  54) = (  0.2502640  0.5794510  0.1603770  )
        55           Si  tau(  55) = (  0.5836000  0.0639229  0.6223170  )
        56           Si  tau(  56) = (  0.8515940  0.9143960  0.7673600  )
        57           Si  tau(  57) = (  0.5203450  0.6966850  0.2484760  )
        58           Si  tau(  58) = (  0.1917990  0.1862820  0.2173910  )
        59           Si  tau(  59) = (  0.2916070  0.0506412  0.7915710  )
        60           Si  tau(  60) = (  0.7879150  0.7206850  0.3628500  )
        61           Si  tau(  61) = (  0.7163510  0.0446384  0.4517990  )
        62           Si  tau(  62) = (  0.3988730  0.8313810  0.9709130  )
        63           Si  tau(  63) = (  0.3268610  0.4237750  0.0322761  )
        64           Si  tau(  64) = (  0.9979290  0.9005960  0.6122460  )
        65           H   tau(  65) = (  0.0506936  0.3608940  0.0477671  )
        66           H   tau(  66) = (  0.4624990  0.5995140  0.8370720  )
        67           H   tau(  67) = (  0.5413210  0.8365740  0.4845600  )
        68           H   tau(  68) = (  0.3503270  0.7929620  0.4763040  )
        69           H   tau(  69) = (  0.9733970  0.1640080  0.4813790  )
        70           H   tau(  70) = (  0.5785700  0.4995270  0.0070563  )
        71           H   tau(  71) = (  0.6809600  0.3875460  0.0805911  )
        72           H   tau(  72) = (  0.6875530  0.0111819  0.1886180  )

     number of k points=    14  Marzari-Vanderbilt smearing, width (Ry)=  0.0500
                       cart. coord. in units 2pi/alat
        k(    1) = (   0.0000000   0.0000000   0.0000000), wk =   0.0740741
        k(    2) = (   0.0000000   0.0000000   0.3333333), wk =   0.1481481
        k(    3) = (   0.0000000   0.3333333   0.3333333), wk =   0.1481481
        k(    4) = (   0.3333333   0.3333333   0.3333333), wk =   0.1481481
        k(    5) = (   0.3333333   0.0000000   0.0000000), wk =   0.1481481
        k(    6) = (   0.0000000   0.3333333   0.0000000), wk =   0.1481481
        k(    7) = (   0.0000000  -0.3333333   0.3333333), wk =   0.1481481
        k(    8) = (   0.3333333   0.0000000  -0.3333333), wk =   0.1481481
        k(    9) = (  -0.3333333   0.0000000  -0.3333333), wk =   0.1481481
        k(   10) = (   0.3333333  -0.3333333   0.0000000), wk =   0.1481481
        k(   11) = (  -0.3333333  -0.3333333   0.0000000), wk =   0.1481481
        k(   12) = (  -0.3333333  -0.3333333   0.3333333), wk =   0.1481481
        k(   13) = (  -0.3333333   0.3333333  -0.3333333), wk =   0.1481481
        k(   14) = (   0.3333333  -0.3333333  -0.3333333), wk =   0.1481481

                       cryst. coord.
        k(    1) = (   0.0000000   0.0000000   0.0000000), wk =   0.0740741
        k(    2) = (   0.0000000   0.0000000   0.3333333), wk =   0.1481481
        k(    3) = (   0.0000000   0.3333333   0.3333333), wk =   0.1481481
        k(    4) = (   0.3333333   0.3333333   0.3333333), wk =   0.1481481
        k(    5) = (   0.3333333   0.0000000   0.0000000), wk =   0.1481481
        k(    6) = (   0.0000000   0.3333333   0.0000000), wk =   0.1481481
        k(    7) = (   0.0000000  -0.3333333   0.3333333), wk =   0.1481481
        k(    8) = (   0.3333333   0.0000000  -0.3333333), wk =   0.1481481
        k(    9) = (  -0.3333333   0.0000000  -0.3333333), wk =   0.1481481
        k(   10) = (   0.3333333  -0.3333333   0.0000000), wk =   0.1481481
        k(   11) = (  -0.3333333  -0.3333333   0.0000000), wk =   0.1481481
        k(   12) = (  -0.3333333  -0.3333333   0.3333333), wk =   0.1481481
        k(   13) = (  -0.3333333   0.3333333  -0.3333333), wk =   0.1481481
        k(   14) = (   0.3333333  -0.3333333  -0.3333333), wk =   0.1481481

     Dense  grid:   322693 G-vectors     FFT dimensions: (  90,  90,  90)

     Dynamical RAM for                 wfc:      12.15 MB

     Dynamical RAM for     wfc (w. buffer):     182.26 MB

     Dynamical RAM for           str. fact:       1.23 MB

     Dynamical RAM for           local pot:       0.00 MB

     Dynamical RAM for          nlocal pot:      24.61 MB

     Dynamical RAM for                qrad:       1.17 MB

     Dynamical RAM for          rho,v,vnew:       4.07 MB

     Dynamical RAM for               rhoin:       1.36 MB

     Dynamical RAM for            rho*nmix:       9.85 MB

     Dynamical RAM for           G-vectors:       2.62 MB

     Dynamical RAM for          h,s,v(r/c):      18.28 MB

     Dynamical RAM for          <psi|beta>:       0.77 MB

     Dynamical RAM for                 psi:      48.60 MB

     Dynamical RAM for                hpsi:      48.60 MB

     Dynamical RAM for      wfcinit/wfcrot:      42.20 MB

     Estimated static dynamical RAM per process >     232.72 MB

     Estimated max dynamical RAM per process >     348.98 MB

     Estimated total dynamical RAM >       2.73 GB

     Initial potential from superposition of free atoms

     starting charge  263.96413, renormalised to  264.00000
     Starting wfc are  264 randomized atomic wfcs

     total cpu time spent up to now is       24.5 secs

     Self-consistent Calculation

     iteration #  1     ecut=    42.00 Ry     beta= 0.30
     Davidson diagonalization with overlap
     ethr =  1.00E-02,  avg # of iterations =  3.0

     Threshold (ethr) on eigenvalues was too large:
     Diagonalizing with lowered threshold

     Davidson diagonalization with overlap
     ethr =  8.68E-04,  avg # of iterations =  2.0

     total cpu time spent up to now is      112.3 secs

     total energy              =    -511.63260713 Ry
     Harris-Foulkes estimate   =    -512.15925343 Ry
     estimated scf accuracy    <       2.27039988 Ry

     iteration #  2     ecut=    42.00 Ry     beta= 0.30
     Davidson diagonalization with overlap
     ethr =  8.60E-04,  avg # of iterations =  2.1

     total cpu time spent up to now is      147.3 secs

     total energy              =    -511.59286100 Ry
     Harris-Foulkes estimate   =    -511.82388327 Ry
     estimated scf accuracy    <       0.98169009 Ry

     iteration #  3     ecut=    42.00 Ry     beta= 0.30
     Davidson diagonalization with overlap
     ethr =  3.72E-04,  avg # of iterations =  4.1

     total cpu time spent up to now is      196.4 secs

     total energy              =    -511.57495648 Ry
     Harris-Foulkes estimate   =    -511.76078882 Ry
     estimated scf accuracy    <       0.81584851 Ry

     iteration #  4     ecut=    42.00 Ry     beta= 0.30
     Davidson diagonalization with overlap
     ethr =  3.09E-04,  avg # of iterations =  2.9

     total cpu time spent up to now is      234.3 secs

     total energy              =    -511.63523021 Ry
     Harris-Foulkes estimate   =    -511.67728882 Ry
     estimated scf accuracy    <       0.19750344 Ry

     iteration #  5     ecut=    42.00 Ry     beta= 0.30
     Davidson diagonalization with overlap
     ethr =  7.48E-05,  avg # of iterations =  4.4

     total cpu time spent up to now is      283.3 secs

     total energy              =    -511.65221404 Ry
     Harris-Foulkes estimate   =    -511.66232562 Ry
     estimated scf accuracy    <       0.04747106 Ry

     iteration #  6     ecut=    42.00 Ry     beta= 0.30
     Davidson diagonalization with overlap
     ethr =  1.80E-05,  avg # of iterations =  7.9

     total cpu time spent up to now is      333.9 secs

     total energy              =    -511.65674906 Ry
     Harris-Foulkes estimate   =    -511.65968878 Ry
     estimated scf accuracy    <       0.01504769 Ry

     iteration #  7     ecut=    42.00 Ry     beta= 0.30
     Davidson diagonalization with overlap
     ethr =  5.70E-06,  avg # of iterations =  3.6

     total cpu time spent up to now is      373.5 secs

     total energy              =    -511.65779801 Ry
     Harris-Foulkes estimate   =    -511.65858305 Ry
     estimated scf accuracy    <       0.00356882 Ry

     iteration #  8     ecut=    42.00 Ry     beta= 0.30
     Davidson diagonalization with overlap
     ethr =  1.35E-06,  avg # of iterations =  4.5

     total cpu time spent up to now is      418.7 secs

     total energy              =    -511.65811615 Ry
     Harris-Foulkes estimate   =    -511.65852640 Ry
     estimated scf accuracy    <       0.00213591 Ry

     iteration #  9     ecut=    42.00 Ry     beta= 0.30
     Davidson diagonalization with overlap
     ethr =  8.09E-07,  avg # of iterations =  2.6

     total cpu time spent up to now is      459.3 secs

     total energy              =    -511.65831254 Ry
     Harris-Foulkes estimate   =    -511.65834537 Ry
     estimated scf accuracy    <       0.00020904 Ry

     iteration # 10     ecut=    42.00 Ry     beta= 0.30
     Davidson diagonalization with overlap
     ethr =  7.92E-08,  avg # of iterations =  3.0

     total cpu time spent up to now is      505.2 secs

     total energy              =    -511.65832828 Ry
     Harris-Foulkes estimate   =    -511.65834660 Ry
     estimated scf accuracy    <       0.00008156 Ry

     iteration # 11     ecut=    42.00 Ry     beta= 0.30
     Davidson diagonalization with overlap
     ethr =  3.09E-08,  avg # of iterations =  3.0

     total cpu time spent up to now is      548.1 secs

     total energy              =    -511.65833457 Ry
     Harris-Foulkes estimate   =    -511.65834530 Ry
     estimated scf accuracy    <       0.00005502 Ry

     iteration # 12     ecut=    42.00 Ry     beta= 0.30
     Davidson diagonalization with overlap
     ethr =  2.08E-08,  avg # of iterations =  2.9

     total cpu time spent up to now is      586.1 secs

     total energy              =    -511.65834057 Ry
     Harris-Foulkes estimate   =    -511.65834127 Ry
     estimated scf accuracy    <       0.00000632 Ry

     iteration # 13     ecut=    42.00 Ry     beta= 0.30
     Davidson diagonalization with overlap
     ethr =  2.40E-09,  avg # of iterations =  3.0

     total cpu time spent up to now is      628.0 secs

     total energy              =    -511.65834138 Ry
     Harris-Foulkes estimate   =    -511.65834144 Ry
     estimated scf accuracy    <       0.00000140 Ry

     iteration # 14     ecut=    42.00 Ry     beta= 0.30
     Davidson diagonalization with overlap
     ethr =  5.29E-10,  avg # of iterations =  3.0

     total cpu time spent up to now is      669.6 secs

     total energy              =    -511.65834151 Ry
     Harris-Foulkes estimate   =    -511.65834162 Ry
     estimated scf accuracy    <       0.00000069 Ry

     iteration # 15     ecut=    42.00 Ry     beta= 0.30
     Davidson diagonalization with overlap
     ethr =  2.61E-10,  avg # of iterations =  3.0

     total cpu time spent up to now is      709.4 secs

     total energy              =    -511.65834163 Ry
     Harris-Foulkes estimate   =    -511.65834164 Ry
     estimated scf accuracy    <       0.00000031 Ry

     iteration # 16     ecut=    42.00 Ry     beta= 0.30
     Davidson diagonalization with overlap
     ethr =  1.17E-10,  avg # of iterations =  2.3

     total cpu time spent up to now is      745.2 secs

     total energy              =    -511.65834168 Ry
     Harris-Foulkes estimate   =    -511.65834166 Ry
     estimated scf accuracy    <       0.00000004 Ry

     iteration # 17     ecut=    42.00 Ry     beta= 0.30
     Davidson diagonalization with overlap
     ethr =  1.63E-11,  avg # of iterations =  3.0

     total cpu time spent up to now is      788.3 secs

     total energy              =    -511.65834169 Ry
     Harris-Foulkes estimate   =    -511.65834169 Ry
     estimated scf accuracy    <       0.00000002 Ry

     iteration # 18     ecut=    42.00 Ry     beta= 0.30
     Davidson diagonalization with overlap
     ethr =  6.82E-12,  avg # of iterations =  3.0

     total cpu time spent up to now is      825.8 secs

     End of self-consistent calculation

          k = 0.0000 0.0000 0.0000 ( 40339 PWs)   bands (ev):

    -6.1248  -5.2807  -5.1741  -5.0951  -5.0080  -4.9111  -4.7563  -4.3354
    -4.2427  -4.1804  -4.1624  -4.1441  -4.0860  -3.9855  -3.9005  -3.8217
    -3.6462  -3.5773  -3.3739  -3.1871  -3.0903  -2.9601  -2.9277  -2.8766
    -2.7480  -2.4818  -2.1433  -2.1285  -1.9865  -1.8598  -1.7620  -1.7236
    -1.5046  -1.3542  -1.2954  -1.2872  -1.1418  -1.0364  -0.9743  -0.9108
    -0.8532  -0.7500  -0.6648  -0.5005  -0.4556  -0.3817  -0.2396  -0.1779
    -0.0566  -0.0007   0.0829   0.2929   0.4087   0.4534   0.6185   0.7388
     0.9095   0.9292   1.0113   1.0865   1.2342   1.2748   1.5125   1.5941
     1.6570   1.7141   1.7535   1.8761   1.9685   2.0427   2.0776   2.1214
     2.2286   2.3617   2.4630   2.5692   2.6207   2.6580   2.7865   2.8407
     2.9153   3.0012   3.0952   3.1336   3.1683   3.1990   3.3060   3.3439
     3.4524   3.4947   3.5623   3.6341   3.7346   3.7647   3.8186   3.8877
     3.9356   3.9657   3.9728   4.0577   4.1238   4.1524   4.1816   4.2266
     4.2731   4.3513   4.4275   4.4830   4.5233   4.5728   4.5842   4.6565
     4.7239   4.8127   4.8491   4.9229   4.9702   5.0401   5.1181   5.1541
     5.1696   5.2678   5.3818   5.4707   5.5431   5.6409   5.7219   5.8008
     5.9982   6.1294   6.1673   6.3388   6.4051   6.5522   6.6846   6.7973
     6.8298   6.9792   7.0441   7.1662   7.2087   7.3581   7.5436   7.5550
     7.6396   7.7675   7.7853   7.8178   7.8952   7.9140   7.9793   8.0443
     8.1051   8.1454   8.1750   8.2122   8.2582   8.3883

     occupation numbers 
     1.0000   1.0000   1.0000   1.0000   1.0000   1.0000   1.0000   1.0000
     1.0000   1.0000   1.0000   1.0000   1.0000   1.0000   1.0000   1.0000
     1.0000   1.0000   1.0000   1.0000   1.0000   1.0000   1.0000   1.0000
     1.0000   1.0000   1.0000   1.0000   1.0000   1.0000   1.0000   1.0000
     1.0000   1.0000   1.0000   1.0000   1.0000   1.0000   1.0000   1.0000
     1.0000   1.0000   1.0000   1.0000   1.0000   1.0000   1.0000   1.0000
     1.0000   1.0000   1.0000   1.0000   1.0000   1.0000   1.0000   1.0000
     1.0000   1.0000   1.0000   1.0000   1.0000   1.0000   1.0000   1.0000
     1.0000   1.0000   1.0000   1.0000   1.0000   1.0000   1.0000   1.0000
     1.0000   1.0000   1.0000   1.0000   1.0000   1.0000   1.0000   1.0000
     1.0000   1.0000   1.0000   1.0000   1.0000   1.0000   1.0000   1.0000
     1.0000   1.0000   1.0000   1.0000   1.0000   1.0000   1.0000   1.0000
     1.0001   1.0001   1.0001   1.0002   1.0003   1.0004   1.0005   1.0007
     1.0010   1.0016   1.0026   1.0036   1.0046   1.0060   1.0064   1.0093
     1.0129   1.0192   1.0224   1.0298   1.0352   1.0440   1.0547   1.0596
     1.0617   1.0740   1.0827   1.0817   1.0736   1.0494   1.0161   0.9711
     0.8081   0.6709   0.6292   0.4422   0.3750   0.2453   0.1560   0.1004
     0.0876   0.0443   0.0320   0.0166   0.0130   0.0052   0.0015   0.0013
     0.0007   0.0003   0.0002   0.0002   0.0001   0.0001   0.0000   0.0000
     0.0000   0.0000   0.0000   0.0000   0.0000   0.0000

          k = 0.0000 0.0000 0.3333 ( 40358 PWs)   bands (ev):

    -6.0233  -5.6378  -5.1106  -4.9724  -4.9378  -4.8053  -4.6376  -4.5847
    -4.4563  -4.4185  -4.2262  -4.0996  -4.0005  -3.8202  -3.7352  -3.6931
    -3.6287  -3.4225  -3.3363  -3.2099  -3.0978  -3.0000  -2.8171  -2.7243
    -2.5509  -2.4670  -2.3489  -2.2186  -2.0059  -1.9217  -1.8706  -1.7818
    -1.6349  -1.5527  -1.4755  -1.3500  -1.2177  -1.1357  -1.0491  -0.9873
    -0.8926  -0.8097  -0.6144  -0.5011  -0.4647  -0.3382  -0.2047  -0.1432
     0.0321   0.1227   0.2885   0.3886   0.4410   0.5839   0.6409   0.7741
     0.8816   0.9107   1.0793   1.2099   1.2916   1.4086   1.5008   1.6083
     1.6338   1.7360   1.8379   1.9938   2.0465   2.1229   2.1680   2.2619
     2.4165   2.4652   2.5260   2.5896   2.6648   2.6988   2.7750   2.8136
     2.8536   2.9716   3.0083   3.0653   3.1293   3.1589   3.2129   3.2947
     3.3409   3.4191   3.4689   3.4990   3.5369   3.6181   3.6747   3.7577
     3.8011   3.8842   3.9355   3.9846   4.0113   4.0730   4.1293   4.1794
     4.2526   4.2904   4.3202   4.4213   4.4420   4.5189   4.5556   4.6874
     4.7436   4.8490   4.9047   4.9374   4.9654   5.0723   5.1207   5.1901
     5.2377   5.3081   5.3707   5.4771   5.6209   5.7298   5.7600   5.8909
     5.9820   6.1652   6.3269   6.4207   6.4522   6.6276   6.7082   6.7424
     6.8590   7.0200   7.0740   7.1897   7.3740   7.4292   7.4676   7.5570
     7.6405   7.6815   7.7964   7.8510   7.8950   7.9978   8.0477   8.0833
     8.1280   8.1895   8.2338   8.3091   8.3620   8.3775

     occupation numbers 
     1.0000   1.0000   1.0000   1.0000   1.0000   1.0000   1.0000   1.0000
     1.0000   1.0000   1.0000   1.0000   1.0000   1.0000   1.0000   1.0000
     1.0000   1.0000   1.0000   1.0000   1.0000   1.0000   1.0000   1.0000
     1.0000   1.0000   1.0000   1.0000   1.0000   1.0000   1.0000   1.0000
     1.0000   1.0000   1.0000   1.0000   1.0000   1.0000   1.0000   1.0000
     1.0000   1.0000   1.0000   1.0000   1.0000   1.0000   1.0000   1.0000
     1.0000   1.0000   1.0000   1.0000   1.0000   1.0000   1.0000   1.0000
     1.0000   1.0000   1.0000   1.0000   1.0000   1.0000   1.0000   1.0000
     1.0000   1.0000   1.0000   1.0000   1.0000   1.0000   1.0000   1.0000
     1.0000   1.0000   1.0000   1.0000   1.0000   1.0000   1.0000   1.0000
     1.0000   1.0000   1.0000   1.0000   1.0000   1.0000   1.0000   1.0000
     1.0000   1.0000   1.0000   1.0000   1.0000   1.0000   1.0000   1.0000
     1.0000   1.0000   1.0001   1.0001   1.0001   1.0002   1.0003   1.0005
     1.0008   1.0011   1.0013   1.0025   1.0028   1.0045   1.0055   1.0109
     1.0142   1.0224   1.0278   1.0314   1.0346   1.0484   1.0550   1.0645
     1.0705   1.0780   1.0823   1.0813   1.0557   1.0121   0.9959   0.9050
     0.8238   0.6315   0.4547   0.3600   0.3303   0.1911   0.1428   0.1252
     0.0772   0.0362   0.0274   0.0145   0.0047   0.0033   0.0025   0.0013
     0.0007   0.0005   0.0002   0.0001   0.0001   0.0000   0.0000   0.0000
     0.0000   0.0000   0.0000   0.0000   0.0000   0.0000

          k = 0.0000 0.3333 0.3333 ( 40312 PWs)   bands (ev):

    -5.9430  -5.5617  -5.4458  -5.1061  -4.9134  -4.7386  -4.5817  -4.5207
    -4.4691  -4.3376  -4.2226  -4.0980  -4.0664  -3.8963  -3.7621  -3.5919
    -3.4638  -3.3080  -3.1957  -3.0928  -3.0150  -2.8541  -2.7959  -2.7290
    -2.6787  -2.5694  -2.3597  -2.2239  -2.1930  -2.1015  -2.0515  -1.8090
    -1.7607  -1.6013  -1.5831  -1.3563  -1.3083  -1.2091  -1.0842  -1.0145
    -0.8904  -0.7919  -0.6937  -0.5762  -0.3649  -0.2193  -0.0819   0.0634
     0.1035   0.2161   0.3010   0.3853   0.4558   0.5555   0.6438   0.8736
     0.9219   1.0340   1.0838   1.1842   1.3977   1.4952   1.5357   1.6764
     1.7319   1.8507   1.9331   1.9726   2.0180   2.1165   2.1766   2.2681
     2.3403   2.4350   2.4933   2.5578   2.6066   2.6585   2.7188   2.7784
     2.8880   2.9001   2.9535   3.0311   3.0946   3.1659   3.2334   3.2840
     3.3511   3.3878   3.4872   3.5450   3.5851   3.6332   3.6863   3.7375
     3.7816   3.8508   3.9259   3.9538   4.0233   4.0505   4.1213   4.1380
     4.2080   4.2662   4.3240   4.3929   4.4622   4.4980   4.5453   4.6896
     4.7234   4.7815   4.8489   4.9030   4.9354   4.9813   5.0238   5.1051
     5.2239   5.2938   5.3653   5.4586   5.4989   5.6079   5.7928   5.9282
     5.9857   6.0312   6.2563   6.2996   6.4138   6.5752   6.7290   6.8240
     6.9427   7.0493   7.1908   7.2842   7.3674   7.4369   7.5103   7.6432
     7.6605   7.7210   7.7740   7.8756   7.9376   8.0010   8.0627   8.1289
     8.2040   8.2406   8.2916   8.3310   8.3709   8.4136

     occupation numbers 
     1.0000   1.0000   1.0000   1.0000   1.0000   1.0000   1.0000   1.0000
     1.0000   1.0000   1.0000   1.0000   1.0000   1.0000   1.0000   1.0000
     1.0000   1.0000   1.0000   1.0000   1.0000   1.0000   1.0000   1.0000
     1.0000   1.0000   1.0000   1.0000   1.0000   1.0000   1.0000   1.0000
     1.0000   1.0000   1.0000   1.0000   1.0000   1.0000   1.0000   1.0000
     1.0000   1.0000   1.0000   1.0000   1.0000   1.0000   1.0000   1.0000
     1.0000   1.0000   1.0000   1.0000   1.0000   1.0000   1.0000   1.0000
     1.0000   1.0000   1.0000   1.0000   1.0000   1.0000   1.0000   1.0000
     1.0000   1.0000   1.0000   1.0000   1.0000   1.0000   1.0000   1.0000
     1.0000   1.0000   1.0000   1.0000   1.0000   1.0000   1.0000   1.0000
     1.0000   1.0000   1.0000   1.0000   1.0000   1.0000   1.0000   1.0000
     1.0000   1.0000   1.0000   1.0000   1.0000   1.0000   1.0000   1.0000
     1.0000   1.0000   1.0001   1.0001   1.0002   1.0002   1.0003   1.0004
     1.0006   1.0009   1.0014   1.0021   1.0032   1.0040   1.0052   1.0110
     1.0129   1.0168   1.0224   1.0276   1.0312   1.0365   1.0419   1.0529
     1.0689   1.0767   1.0820   1.0824   1.0794   1.0595   0.9762   0.8733
     0.8203   0.7752   0.5307   0.4837   0.3666   0.2279   0.1319   0.0898
     0.0527   0.0311   0.0144   0.0083   0.0049   0.0031   0.0019   0.0007
     0.0006   0.0004   0.0002   0.0001   0.0001   0.0000   0.0000   0.0000
     0.0000   0.0000   0.0000   0.0000   0.0000   0.0000

          k = 0.3333 0.3333 0.3333 ( 40314 PWs)   bands (ev):

    -5.8388  -5.5717  -5.3443  -5.2741  -5.0723  -4.9829  -4.8711  -4.6289
    -4.1769  -4.0928  -3.9751  -3.8899  -3.8694  -3.7855  -3.6639  -3.5360
    -3.4379  -3.3464  -3.2835  -3.1535  -3.0778  -2.9846  -2.8669  -2.6999
    -2.6570  -2.5944  -2.5024  -2.4339  -2.3798  -2.1682  -2.0795  -1.8624
    -1.7981  -1.6755  -1.5282  -1.3760  -1.2613  -1.1375  -1.0949  -0.9858
    -0.8347  -0.7206  -0.5835  -0.4905  -0.3188  -0.2471  -0.1578  -0.0257
     0.1019   0.1244   0.2823   0.3902   0.4947   0.6567   0.7526   0.8140
     0.8718   1.0886   1.1723   1.2889   1.4206   1.5408   1.6043   1.6957
     1.7354   1.7971   1.9023   2.0297   2.0862   2.1466   2.2634   2.3314
     2.3883   2.4224   2.5121   2.5585   2.6003   2.6705   2.7704   2.7920
     2.8649   2.9518   2.9966   3.0453   3.1077   3.1480   3.1707   3.2538
     3.3483   3.3980   3.4545   3.5419   3.5767   3.5967   3.6327   3.7466
     3.7503   3.7896   3.8683   3.9104   3.9458   4.0246   4.0524   4.1234
     4.1990   4.2536   4.2928   4.3361   4.3837   4.5036   4.5467   4.6091
     4.6698   4.7396   4.7896   4.8469   4.9005   4.9552   5.0460   5.0685
     5.2073   5.2336   5.3745   5.4833   5.5194   5.5595   5.6487   5.9687
     6.0285   6.1570   6.2474   6.3159   6.4811   6.5611   6.6446   6.8495
     6.9314   6.9986   7.0777   7.2556   7.3472   7.4690   7.5201   7.5528
     7.6431   7.7455   7.8006   7.8612   7.9048   8.0211   8.0710   8.1116
     8.1710   8.2105   8.3014   8.3418   8.3745   8.4302

     occupation numbers 
     1.0000   1.0000   1.0000   1.0000   1.0000   1.0000   1.0000   1.0000
     1.0000   1.0000   1.0000   1.0000   1.0000   1.0000   1.0000   1.0000
     1.0000   1.0000   1.0000   1.0000   1.0000   1.0000   1.0000   1.0000
     1.0000   1.0000   1.0000   1.0000   1.0000   1.0000   1.0000   1.0000
     1.0000   1.0000   1.0000   1.0000   1.0000   1.0000   1.0000   1.0000
     1.0000   1.0000   1.0000   1.0000   1.0000   1.0000   1.0000   1.0000
     1.0000   1.0000   1.0000   1.0000   1.0000   1.0000   1.0000   1.0000
     1.0000   1.0000   1.0000   1.0000   1.0000   1.0000   1.0000   1.0000
     1.0000   1.0000   1.0000   1.0000   1.0000   1.0000   1.0000   1.0000
     1.0000   1.0000   1.0000   1.0000   1.0000   1.0000   1.0000   1.0000
     1.0000   1.0000   1.0000   1.0000   1.0000   1.0000   1.0000   1.0000
     1.0000   1.0000   1.0000   1.0000   1.0000   1.0000   1.0000   1.0000
     1.0000   1.0000   1.0000   1.0001   1.0001   1.0002   1.0002   1.0003
     1.0006   1.0008   1.0011   1.0015   1.0020   1.0041   1.0052   1.0073
     1.0100   1.0139   1.0174   1.0222   1.0274   1.0334   1.0448   1.0478
     1.0668   1.0701   1.0824   1.0808   1.0771   1.0707   1.0468   0.8365
     0.7779   0.6405   0.5405   0.4663   0.3044   0.2385   0.1801   0.0805
     0.0556   0.0402   0.0269   0.0098   0.0056   0.0025   0.0017   0.0014
     0.0007   0.0003   0.0002   0.0001   0.0001   0.0000   0.0000   0.0000
     0.0000   0.0000   0.0000   0.0000   0.0000   0.0000

          k = 0.3333 0.0000 0.0000 ( 40358 PWs)   bands (ev):

    -6.0139  -5.6549  -5.1138  -4.9987  -4.8998  -4.7955  -4.6322  -4.5648
    -4.5196  -4.4297  -4.2406  -4.0519  -3.9395  -3.8381  -3.8153  -3.6569
    -3.5603  -3.4073  -3.3133  -3.2150  -3.1563  -3.0720  -2.8651  -2.7502
    -2.5080  -2.3540  -2.2326  -2.1804  -2.0809  -1.9926  -1.8890  -1.7559
    -1.7257  -1.5715  -1.5425  -1.3804  -1.3242  -1.1249  -1.0090  -0.9069
    -0.7739  -0.7290  -0.6795  -0.5125  -0.3886  -0.3091  -0.2794  -0.1872
    -0.0525   0.1107   0.2656   0.4202   0.5122   0.6103   0.6878   0.7602
     0.8730   1.0715   1.1319   1.2117   1.3415   1.4083   1.4790   1.5777
     1.7125   1.7822   1.9053   1.9482   1.9743   2.0793   2.1662   2.1957
     2.2394   2.3541   2.3750   2.5128   2.5698   2.6651   2.7519   2.8090
     2.9074   2.9830   3.0273   3.0591   3.1193   3.1937   3.2193   3.2873
     3.3004   3.3725   3.4732   3.5221   3.6199   3.6663   3.6926   3.7489
     3.8299   3.8995   3.9529   4.0245   4.0812   4.1432   4.1756   4.2311
     4.2880   4.3114   4.3966   4.4656   4.5133   4.5814   4.6257   4.6792
     4.7073   4.7981   4.8308   4.9619   5.0181   5.0453   5.1027   5.1629
     5.1862   5.2603   5.4124   5.4903   5.5827   5.6643   5.7496   5.8512
     6.0358   6.1669   6.2573   6.4091   6.4657   6.5761   6.6795   6.6919
     6.8993   6.9917   7.0701   7.2123   7.3403   7.3874   7.4482   7.5400
     7.6433   7.7125   7.7715   7.8429   7.8779   7.9445   8.0399   8.1155
     8.1531   8.1595   8.2376   8.2866   8.3398   8.3805

     occupation numbers 
     1.0000   1.0000   1.0000   1.0000   1.0000   1.0000   1.0000   1.0000
     1.0000   1.0000   1.0000   1.0000   1.0000   1.0000   1.0000   1.0000
     1.0000   1.0000   1.0000   1.0000   1.0000   1.0000   1.0000   1.0000
     1.0000   1.0000   1.0000   1.0000   1.0000   1.0000   1.0000   1.0000
     1.0000   1.0000   1.0000   1.0000   1.0000   1.0000   1.0000   1.0000
     1.0000   1.0000   1.0000   1.0000   1.0000   1.0000   1.0000   1.0000
     1.0000   1.0000   1.0000   1.0000   1.0000   1.0000   1.0000   1.0000
     1.0000   1.0000   1.0000   1.0000   1.0000   1.0000   1.0000   1.0000
     1.0000   1.0000   1.0000   1.0000   1.0000   1.0000   1.0000   1.0000
     1.0000   1.0000   1.0000   1.0000   1.0000   1.0000   1.0000   1.0000
     1.0000   1.0000   1.0000   1.0000   1.0000   1.0000   1.0000   1.0000
     1.0000   1.0000   1.0000   1.0000   1.0000   1.0000   1.0000   1.0000
     1.0000   1.0001   1.0001   1.0002   1.0002   1.0004   1.0005   1.0007
     1.0011   1.0012   1.0022   1.0033   1.0043   1.0063   1.0080   1.0104
     1.0120   1.0181   1.0208   1.0342   1.0412   1.0447   1.0525   1.0608
     1.0640   1.0732   1.0833   1.0802   1.0658   1.0411   1.0017   0.9360
     0.7704   0.6296   0.5297   0.3712   0.3180   0.2272   0.1589   0.1518
     0.0645   0.0416   0.0279   0.0127   0.0058   0.0043   0.0029   0.0015
     0.0007   0.0004   0.0003   0.0001   0.0001   0.0001   0.0000   0.0000
     0.0000   0.0000   0.0000   0.0000   0.0000   0.0000

          k = 0.0000 0.3333 0.0000 ( 40358 PWs)   bands (ev):

    -6.0416  -5.5509  -5.2160  -5.0657  -4.9066  -4.7341  -4.5898  -4.5416
    -4.5148  -4.4017  -4.2202  -4.1094  -3.9664  -3.9000  -3.7157  -3.6540
    -3.5773  -3.4717  -3.4181  -3.2648  -3.0478  -2.9278  -2.8879  -2.7171
    -2.5598  -2.4111  -2.2913  -2.1698  -2.0396  -1.9128  -1.8681  -1.7874
    -1.7171  -1.5755  -1.4322  -1.3030  -1.2581  -1.1831  -1.0836  -0.9351
    -0.8494  -0.7855  -0.6945  -0.6268  -0.4743  -0.2746  -0.1276  -0.0400
    -0.0074   0.0760   0.2416   0.3721   0.4876   0.5448   0.6196   0.7153
     0.8651   0.9770   1.0932   1.2619   1.3558   1.4551   1.5191   1.6456
     1.7129   1.7522   1.8684   1.9434   2.0033   2.0694   2.1969   2.2440
     2.3508   2.3949   2.4592   2.5446   2.6117   2.6603   2.7554   2.8581
     2.9172   2.9609   3.0163   3.0674   3.1226   3.1755   3.2073   3.2444
     3.3543   3.4499   3.5150   3.5526   3.6171   3.6530   3.6933   3.7275
     3.7748   3.8374   3.8886   3.9671   4.0191   4.0907   4.1227   4.1497
     4.2404   4.2784   4.3124   4.4477   4.4739   4.5737   4.6204   4.6682
     4.7827   4.8433   4.9074   4.9503   5.0099   5.0527   5.1362   5.1712
     5.2672   5.2920   5.3469   5.4605   5.5936   5.7054   5.7718   5.8262
     5.9479   6.0743   6.2183   6.3825   6.4924   6.5467   6.6704   6.8145
     6.8956   6.9954   7.1612   7.2966   7.3323   7.4330   7.5257   7.5878
     7.6379   7.7138   7.7728   7.8706   7.9193   7.9844   8.0399   8.1103
     8.1531   8.1847   8.2640   8.3337   8.3945   8.4354

     occupation numbers 
     1.0000   1.0000   1.0000   1.0000   1.0000   1.0000   1.0000   1.0000
     1.0000   1.0000   1.0000   1.0000   1.0000   1.0000   1.0000   1.0000
     1.0000   1.0000   1.0000   1.0000   1.0000   1.0000   1.0000   1.0000
     1.0000   1.0000   1.0000   1.0000   1.0000   1.0000   1.0000   1.0000
     1.0000   1.0000   1.0000   1.0000   1.0000   1.0000   1.0000   1.0000
     1.0000   1.0000   1.0000   1.0000   1.0000   1.0000   1.0000   1.0000
     1.0000   1.0000   1.0000   1.0000   1.0000   1.0000   1.0000   1.0000
     1.0000   1.0000   1.0000   1.0000   1.0000   1.0000   1.0000   1.0000
     1.0000   1.0000   1.0000   1.0000   1.0000   1.0000   1.0000   1.0000
     1.0000   1.0000   1.0000   1.0000   1.0000   1.0000   1.0000   1.0000
     1.0000   1.0000   1.0000   1.0000   1.0000   1.0000   1.0000   1.0000
     1.0000   1.0000   1.0000   1.0000   1.0000   1.0000   1.0000   1.0000
     1.0000   1.0000   1.0000   1.0001   1.0001   1.0003   1.0003   1.0004
     1.0008   1.0010   1.0013   1.0029   1.0034   1.0061   1.0078   1.0099
     1.0169   1.0219   1.0281   1.0328   1.0401   1.0457   1.0572   1.0620
     1.0740   1.0765   1.0810   1.0823   1.0632   1.0239   0.9891   0.9541
     0.8557   0.7303   0.5727   0.3974   0.2944   0.2496   0.1642   0.0934
     0.0656   0.0409   0.0170   0.0077   0.0061   0.0032   0.0017   0.0011
     0.0007   0.0004   0.0002   0.0001   0.0001   0.0000   0.0000   0.0000
     0.0000   0.0000   0.0000   0.0000   0.0000   0.0000

          k = 0.0000-0.3333 0.3333 ( 40312 PWs)   bands (ev):

    -5.9419  -5.5727  -5.4345  -5.1036  -4.9009  -4.7745  -4.5842  -4.5265
    -4.4333  -4.3308  -4.2019  -4.1547  -4.0456  -3.8403  -3.8148  -3.6161
    -3.4275  -3.3291  -3.2250  -3.0907  -3.0141  -2.8838  -2.7799  -2.6839
    -2.6464  -2.5230  -2.4094  -2.2499  -2.1814  -2.0604  -2.0111  -1.8993
    -1.7894  -1.6379  -1.5739  -1.4314  -1.2772  -1.1817  -1.0553  -0.9768
    -0.9104  -0.7849  -0.6211  -0.5278  -0.3618  -0.2477  -0.1235  -0.0362
     0.0929   0.2373   0.3359   0.4327   0.4965   0.5470   0.6291   0.7502
     0.9463   0.9973   1.1437   1.1840   1.3918   1.4880   1.5594   1.6550
     1.6931   1.8405   1.9414   1.9955   2.0210   2.0856   2.2341   2.2768
     2.3150   2.4136   2.4744   2.5568   2.6546   2.7156   2.7570   2.8395
     2.8805   2.9898   3.0234   3.0414   3.1229   3.1683   3.2073   3.2304
     3.3203   3.3711   3.4232   3.5250   3.5687   3.6139   3.6694   3.6992
     3.7741   3.8149   3.8728   3.9301   3.9637   4.0531   4.0955   4.1225
     4.2440   4.2942   4.3473   4.4188   4.4483   4.4986   4.5676   4.6530
     4.6900   4.7421   4.8370   4.9111   4.9722   5.0203   5.0904   5.1552
     5.2370   5.2738   5.3092   5.4203   5.5900   5.7235   5.7866   5.9432
     5.9581   6.0738   6.2409   6.3295   6.4146   6.5195   6.7325   6.7934
     6.8752   7.0572   7.1284   7.2741   7.3796   7.4499   7.5202   7.5815
     7.6533   7.7295   7.8238   7.8943   7.9509   7.9723   8.0485   8.0936
     8.2115   8.2507   8.2998   8.3538   8.4059   8.4929

     occupation numbers 
     1.0000   1.0000   1.0000   1.0000   1.0000   1.0000   1.0000   1.0000
     1.0000   1.0000   1.0000   1.0000   1.0000   1.0000   1.0000   1.0000
     1.0000   1.0000   1.0000   1.0000   1.0000   1.0000   1.0000   1.0000
     1.0000   1.0000   1.0000   1.0000   1.0000   1.0000   1.0000   1.0000
     1.0000   1.0000   1.0000   1.0000   1.0000   1.0000   1.0000   1.0000
     1.0000   1.0000   1.0000   1.0000   1.0000   1.0000   1.0000   1.0000
     1.0000   1.0000   1.0000   1.0000   1.0000   1.0000   1.0000   1.0000
     1.0000   1.0000   1.0000   1.0000   1.0000   1.0000   1.0000   1.0000
     1.0000   1.0000   1.0000   1.0000   1.0000   1.0000   1.0000   1.0000
     1.0000   1.0000   1.0000   1.0000   1.0000   1.0000   1.0000   1.0000
     1.0000   1.0000   1.0000   1.0000   1.0000   1.0000   1.0000   1.0000
     1.0000   1.0000   1.0000   1.0000   1.0000   1.0000   1.0000   1.0000
     1.0000   1.0000   1.0000   1.0001   1.0001   1.0002   1.0003   1.0003
     1.0008   1.0011   1.0016   1.0025   1.0030   1.0040   1.0059   1.0092
     1.0110   1.0141   1.0213   1.0285   1.0354   1.0414   1.0508   1.0598
     1.0705   1.0747   1.0781   1.0833   1.0641   1.0153   0.9801   0.8600
     0.8464   0.7308   0.5477   0.4519   0.3658   0.2715   0.1301   0.1020
     0.0719   0.0299   0.0204   0.0088   0.0045   0.0028   0.0017   0.0011
     0.0006   0.0004   0.0002   0.0001   0.0001   0.0000   0.0000   0.0000
     0.0000   0.0000   0.0000   0.0000   0.0000   0.0000

          k = 0.3333 0.0000-0.3333 ( 40312 PWs)   bands (ev):

    -5.9260  -5.5698  -5.4530  -5.1853  -4.8761  -4.7444  -4.6130  -4.5005
    -4.3884  -4.2778  -4.2261  -4.1059  -4.0071  -3.8957  -3.8196  -3.6726
    -3.4224  -3.2849  -3.2036  -3.1207  -3.0571  -2.9550  -2.8074  -2.7503
    -2.5776  -2.5374  -2.4397  -2.3353  -2.1806  -1.9582  -1.8917  -1.8292
    -1.7436  -1.6254  -1.5635  -1.4290  -1.2937  -1.2514  -1.1225  -0.9419
    -0.8380  -0.8156  -0.6800  -0.5738  -0.3728  -0.2878  -0.1573  -0.0129
     0.0828   0.1520   0.2452   0.5056   0.5508   0.6112   0.7438   0.9149
     0.9650   1.0214   1.0898   1.2889   1.3980   1.4450   1.4957   1.5979
     1.6910   1.7881   1.9320   1.9599   2.0276   2.0993   2.2104   2.2502
     2.3158   2.4321   2.5031   2.5625   2.5870   2.7005   2.7513   2.7982
     2.8611   2.9245   2.9671   3.0119   3.0526   3.1345   3.2075   3.2467
     3.3274   3.3934   3.4616   3.5591   3.6352   3.6711   3.6912   3.7077
     3.7812   3.8699   3.8903   3.9571   4.0093   4.0737   4.1252   4.1590
     4.2229   4.2778   4.3228   4.3684   4.4206   4.5178   4.5898   4.6270
     4.7049   4.7084   4.8066   4.9301   4.9533   4.9953   5.0556   5.1137
     5.1915   5.2666   5.4109   5.4462   5.5580   5.6974   5.7548   5.9214
     6.0773   6.1837   6.3082   6.4173   6.5245   6.6241   6.6813   6.7727
     6.9020   6.9862   7.1373   7.2004   7.3005   7.4197   7.4843   7.5921
     7.6352   7.7621   7.7971   7.8375   7.9164   7.9483   8.0026   8.0622
     8.1138   8.1763   8.2298   8.3346   8.3601   8.3995

     occupation numbers 
     1.0000   1.0000   1.0000   1.0000   1.0000   1.0000   1.0000   1.0000
     1.0000   1.0000   1.0000   1.0000   1.0000   1.0000   1.0000   1.0000
     1.0000   1.0000   1.0000   1.0000   1.0000   1.0000   1.0000   1.0000
     1.0000   1.0000   1.0000   1.0000   1.0000   1.0000   1.0000   1.0000
     1.0000   1.0000   1.0000   1.0000   1.0000   1.0000   1.0000   1.0000
     1.0000   1.0000   1.0000   1.0000   1.0000   1.0000   1.0000   1.0000
     1.0000   1.0000   1.0000   1.0000   1.0000   1.0000   1.0000   1.0000
     1.0000   1.0000   1.0000   1.0000   1.0000   1.0000   1.0000   1.0000
     1.0000   1.0000   1.0000   1.0000   1.0000   1.0000   1.0000   1.0000
     1.0000   1.0000   1.0000   1.0000   1.0000   1.0000   1.0000   1.0000
     1.0000   1.0000   1.0000   1.0000   1.0000   1.0000   1.0000   1.0000
     1.0000   1.0000   1.0000   1.0000   1.0000   1.0000   1.0000   1.0000
     1.0000   1.0000   1.0001   1.0001   1.0001   1.0002   1.0003   1.0004
     1.0007   1.0010   1.0013   1.0018   1.0025   1.0044   1.0066   1.0080
     1.0118   1.0120   1.0188   1.0306   1.0332   1.0383   1.0461   1.0541
     1.0647   1.0739   1.0833   1.0829   1.0710   1.0275   0.9988   0.8793
     0.7271   0.6110   0.4745   0.3632   0.2674   0.1935   0.1578   0.1110
     0.0637   0.0428   0.0195   0.0136   0.0075   0.0035   0.0022   0.0010
     0.0007   0.0003   0.0002   0.0001   0.0001   0.0001   0.0000   0.0000
     0.0000   0.0000   0.0000   0.0000   0.0000   0.0000

          k =-0.3333 0.0000-0.3333 ( 40312 PWs)   bands (ev):

    -5.9145  -5.6388  -5.3843  -5.1650  -4.9075  -4.7523  -4.6315  -4.4673
    -4.3511  -4.3075  -4.2262  -4.1270  -4.0136  -3.9496  -3.8036  -3.5714
    -3.4411  -3.3070  -3.2724  -3.1281  -3.0457  -2.8771  -2.8187  -2.6978
    -2.5703  -2.5215  -2.4346  -2.3597  -2.2513  -2.0369  -1.9119  -1.8255
    -1.7515  -1.6359  -1.4376  -1.3597  -1.2828  -1.2147  -1.1129  -1.0120
    -0.9106  -0.7835  -0.7357  -0.5206  -0.4465  -0.3660  -0.1837  -0.0071
     0.1540   0.2275   0.3248   0.4131   0.5798   0.6461   0.7283   0.9055
     0.9537   1.0429   1.1651   1.2951   1.3571   1.4328   1.5384   1.6393
     1.6678   1.7443   1.8397   1.9364   2.0134   2.1198   2.1855   2.2450
     2.2796   2.3727   2.5081   2.5940   2.6469   2.7263   2.7719   2.8105
     2.8717   2.8865   2.9561   3.0027   3.0817   3.1500   3.2093   3.2708
     3.3510   3.3808   3.4974   3.5561   3.5795   3.6187   3.6542   3.7394
     3.7898   3.8770   3.9481   3.9862   4.0372   4.0614   4.1049   4.1453
     4.2000   4.2668   4.3313   4.3493   4.4612   4.4754   4.5402   4.6269
     4.6925   4.7371   4.8132   4.8655   4.9441   5.0208   5.0678   5.1683
     5.2320   5.2952   5.3922   5.4493   5.5332   5.6614   5.8091   6.0068
     6.0351   6.1894   6.2958   6.3643   6.5093   6.6098   6.7014   6.8289
     6.9039   7.0093   7.0707   7.2197   7.3245   7.4019   7.4810   7.5325
     7.6446   7.6953   7.7610   7.8583   7.8928   7.9934   8.0308   8.0532
     8.1387   8.2151   8.2838   8.3377   8.4014   8.4298

     occupation numbers 
     1.0000   1.0000   1.0000   1.0000   1.0000   1.0000   1.0000   1.0000
     1.0000   1.0000   1.0000   1.0000   1.0000   1.0000   1.0000   1.0000
     1.0000   1.0000   1.0000   1.0000   1.0000   1.0000   1.0000   1.0000
     1.0000   1.0000   1.0000   1.0000   1.0000   1.0000   1.0000   1.0000
     1.0000   1.0000   1.0000   1.0000   1.0000   1.0000   1.0000   1.0000
     1.0000   1.0000   1.0000   1.0000   1.0000   1.0000   1.0000   1.0000
     1.0000   1.0000   1.0000   1.0000   1.0000   1.0000   1.0000   1.0000
     1.0000   1.0000   1.0000   1.0000   1.0000   1.0000   1.0000   1.0000
     1.0000   1.0000   1.0000   1.0000   1.0000   1.0000   1.0000   1.0000
     1.0000   1.0000   1.0000   1.0000   1.0000   1.0000   1.0000   1.0000
     1.0000   1.0000   1.0000   1.0000   1.0000   1.0000   1.0000   1.0000
     1.0000   1.0000   1.0000   1.0000   1.0000   1.0000   1.0000   1.0000
     1.0000   1.0000   1.0001   1.0001   1.0002   1.0002   1.0003   1.0004
     1.0006   1.0009   1.0014   1.0016   1.0032   1.0035   1.0050   1.0080
     1.0111   1.0138   1.0193   1.0239   1.0321   1.0415   1.0477   1.0616
     1.0699   1.0768   1.0830   1.0828   1.0752   1.0422   0.9657   0.7996
     0.7712   0.6047   0.4879   0.4158   0.2801   0.2032   0.1465   0.0879
     0.0631   0.0382   0.0279   0.0122   0.0064   0.0039   0.0023   0.0016
     0.0007   0.0005   0.0003   0.0001   0.0001   0.0000   0.0000   0.0000
     0.0000   0.0000   0.0000   0.0000   0.0000   0.0000

          k = 0.3333-0.3333 0.0000 ( 40312 PWs)   bands (ev):

    -5.9318  -5.5900  -5.4297  -5.1150  -4.8954  -4.7954  -4.5767  -4.5079
    -4.4370  -4.3240  -4.2275  -4.0870  -4.0200  -3.9738  -3.7974  -3.5761
    -3.3611  -3.2823  -3.1838  -3.0820  -3.0264  -2.9379  -2.8380  -2.7438
    -2.6226  -2.5280  -2.4438  -2.3083  -2.2179  -2.0811  -1.9286  -1.8885
    -1.7452  -1.6569  -1.4973  -1.4046  -1.3733  -1.2205  -1.1263  -0.9248
    -0.7917  -0.6882  -0.6409  -0.4806  -0.3877  -0.3040  -0.1861  -0.0566
     0.0818   0.1434   0.2344   0.4075   0.4623   0.5959   0.7510   0.8741
     1.0077   1.1166   1.2459   1.2719   1.3419   1.4220   1.5664   1.6594
     1.7188   1.8243   1.8674   1.9338   2.0388   2.0743   2.1296   2.2489
     2.2773   2.3629   2.4338   2.5486   2.6286   2.7003   2.7734   2.8085
     2.8586   2.9560   2.9837   3.0335   3.0552   3.1251   3.1743   3.2754
     3.2891   3.4412   3.4550   3.5155   3.5624   3.6640   3.7024   3.7418
     3.7864   3.8401   3.8702   3.9361   4.0071   4.0647   4.1027   4.1919
     4.2154   4.3459   4.3869   4.4152   4.4832   4.5168   4.5865   4.6362
     4.6961   4.7701   4.8424   4.8806   4.9406   5.0150   5.1023   5.1833
     5.2468   5.2847   5.4327   5.4831   5.5616   5.7082   5.7350   5.8483
     5.9249   6.0484   6.2832   6.3289   6.4070   6.5421   6.6343   6.7840
     6.9130   6.9948   7.1463   7.2344   7.3577   7.3937   7.5064   7.5750
     7.6296   7.7309   7.7750   7.8883   7.9303   7.9831   8.0646   8.1435
     8.2241   8.2495   8.2917   8.3585   8.3939   8.4491

     occupation numbers 
     1.0000   1.0000   1.0000   1.0000   1.0000   1.0000   1.0000   1.0000
     1.0000   1.0000   1.0000   1.0000   1.0000   1.0000   1.0000   1.0000
     1.0000   1.0000   1.0000   1.0000   1.0000   1.0000   1.0000   1.0000
     1.0000   1.0000   1.0000   1.0000   1.0000   1.0000   1.0000   1.0000
     1.0000   1.0000   1.0000   1.0000   1.0000   1.0000   1.0000   1.0000
     1.0000   1.0000   1.0000   1.0000   1.0000   1.0000   1.0000   1.0000
     1.0000   1.0000   1.0000   1.0000   1.0000   1.0000   1.0000   1.0000
     1.0000   1.0000   1.0000   1.0000   1.0000   1.0000   1.0000   1.0000
     1.0000   1.0000   1.0000   1.0000   1.0000   1.0000   1.0000   1.0000
     1.0000   1.0000   1.0000   1.0000   1.0000   1.0000   1.0000   1.0000
     1.0000   1.0000   1.0000   1.0000   1.0000   1.0000   1.0000   1.0000
     1.0000   1.0000   1.0000   1.0000   1.0000   1.0000   1.0000   1.0000
     1.0000   1.0000   1.0000   1.0001   1.0001   1.0002   1.0003   1.0005
     1.0006   1.0016   1.0020   1.0024   1.0036   1.0044   1.0065   1.0084
     1.0113   1.0160   1.0218   1.0254   1.0317   1.0408   1.0525   1.0636
     1.0716   1.0758   1.0832   1.0808   1.0703   1.0226   1.0094   0.9382
     0.8763   0.7575   0.5015   0.4526   0.3732   0.2533   0.1867   0.1060
     0.0606   0.0410   0.0185   0.0112   0.0052   0.0041   0.0019   0.0012
     0.0008   0.0004   0.0002   0.0001   0.0001   0.0000   0.0000   0.0000
     0.0000   0.0000   0.0000   0.0000   0.0000   0.0000

          k =-0.3333-0.3333 0.0000 ( 40312 PWs)   bands (ev):

    -5.9340  -5.5761  -5.4349  -5.1406  -4.8721  -4.7932  -4.6251  -4.4871
    -4.4091  -4.3057  -4.2252  -4.1429  -4.0430  -3.8866  -3.7731  -3.5618
    -3.3911  -3.3456  -3.2263  -3.1344  -3.0406  -2.8909  -2.8192  -2.7085
    -2.6061  -2.5977  -2.3378  -2.2604  -2.1901  -2.0984  -1.9506  -1.9038
    -1.7713  -1.5859  -1.5595  -1.4245  -1.3521  -1.2386  -1.1175  -0.9641
    -0.8416  -0.7654  -0.6674  -0.4124  -0.3459  -0.2007  -0.1712  -0.0291
     0.0833   0.1795   0.2284   0.3474   0.4207   0.6618   0.7420   0.7980
     0.9202   1.0638   1.2133   1.2793   1.3933   1.4869   1.5925   1.6519
     1.7227   1.7905   1.8400   1.9930   2.0427   2.1235   2.2109   2.2551
     2.3326   2.4094   2.4941   2.5423   2.6001   2.6543   2.7227   2.7683
     2.8402   2.8510   2.9436   3.0091   3.0305   3.1134   3.2321   3.2498
     3.3271   3.3931   3.4491   3.5352   3.5930   3.6663   3.7385   3.7677
     3.8040   3.8823   3.9414   3.9474   4.0065   4.0387   4.0751   4.1376
     4.2226   4.3072   4.3295   4.4077   4.4826   4.5545   4.6005   4.6350
     4.6537   4.7279   4.8379   4.9154   4.9482   5.0755   5.0934   5.1581
     5.2376   5.3089   5.3654   5.4582   5.5504   5.6824   5.7496   5.8128
     5.9479   6.1342   6.2463   6.4272   6.4599   6.5348   6.6924   6.8119
     6.8669   7.0531   7.1537   7.2946   7.3658   7.4218   7.4806   7.5710
     7.6551   7.7163   7.7627   7.8242   7.9010   7.9963   8.0360   8.0768
     8.1735   8.2454   8.2888   8.3144   8.3700   8.4377

     occupation numbers 
     1.0000   1.0000   1.0000   1.0000   1.0000   1.0000   1.0000   1.0000
     1.0000   1.0000   1.0000   1.0000   1.0000   1.0000   1.0000   1.0000
     1.0000   1.0000   1.0000   1.0000   1.0000   1.0000   1.0000   1.0000
     1.0000   1.0000   1.0000   1.0000   1.0000   1.0000   1.0000   1.0000
     1.0000   1.0000   1.0000   1.0000   1.0000   1.0000   1.0000   1.0000
     1.0000   1.0000   1.0000   1.0000   1.0000   1.0000   1.0000   1.0000
     1.0000   1.0000   1.0000   1.0000   1.0000   1.0000   1.0000   1.0000
     1.0000   1.0000   1.0000   1.0000   1.0000   1.0000   1.0000   1.0000
     1.0000   1.0000   1.0000   1.0000   1.0000   1.0000   1.0000   1.0000
     1.0000   1.0000   1.0000   1.0000   1.0000   1.0000   1.0000   1.0000
     1.0000   1.0000   1.0000   1.0000   1.0000   1.0000   1.0000   1.0000
     1.0000   1.0000   1.0000   1.0000   1.0000   1.0000   1.0000   1.0000
     1.0000   1.0000   1.0001   1.0001   1.0001   1.0002   1.0002   1.0004
     1.0007   1.0012   1.0014   1.0023   1.0036   1.0055   1.0070   1.0084
     1.0092   1.0132   1.0214   1.0290   1.0326   1.0488   1.0513   1.0602
     1.0705   1.0781   1.0820   1.0824   1.0724   1.0339   1.0017   0.9632
     0.8557   0.6656   0.5418   0.3537   0.3233   0.2591   0.1515   0.0945
     0.0745   0.0305   0.0178   0.0078   0.0049   0.0034   0.0023   0.0012
     0.0006   0.0004   0.0003   0.0002   0.0001   0.0000   0.0000   0.0000
     0.0000   0.0000   0.0000   0.0000   0.0000   0.0000

          k =-0.3333-0.3333 0.3333 ( 40314 PWs)   bands (ev):

    -5.8518  -5.4922  -5.3889  -5.3270  -5.0423  -4.9969  -4.8571  -4.6528
    -4.1777  -4.0320  -3.9531  -3.8589  -3.8069  -3.7632  -3.6934  -3.6593
    -3.5158  -3.4222  -3.2887  -3.1393  -3.0058  -2.8938  -2.8245  -2.7848
    -2.6887  -2.5861  -2.5150  -2.4165  -2.2994  -2.1404  -2.0466  -1.9661
    -1.8380  -1.6566  -1.5319  -1.3878  -1.3171  -1.2018  -1.0932  -0.9332
    -0.7721  -0.6474  -0.4718  -0.4240  -0.3457  -0.2858  -0.2134  -0.1063
     0.0801   0.1274   0.1810   0.3479   0.5805   0.6783   0.7670   0.8228
     0.9254   1.0355   1.2099   1.3024   1.4238   1.4902   1.5762   1.6305
     1.7298   1.8426   1.9091   2.0171   2.0530   2.1624   2.2224   2.2565
     2.4174   2.4588   2.5424   2.5895   2.6701   2.6899   2.7698   2.8064
     2.8801   2.9599   3.0188   3.0667   3.1383   3.1839   3.2084   3.2758
     3.3304   3.3982   3.4375   3.5029   3.5644   3.6006   3.6293   3.7090
     3.7657   3.7937   3.8561   3.8965   3.9609   4.0045   4.0626   4.1388
     4.1851   4.2097   4.2494   4.2795   4.4312   4.4721   4.5013   4.5696
     4.6400   4.7166   4.7911   4.8490   4.8832   4.9386   5.0398   5.1267
     5.1786   5.2724   5.3536   5.4734   5.6064   5.6824   5.7137   5.8510
     5.9798   6.1652   6.2300   6.3167   6.4875   6.6010   6.7196   6.8106
     6.8727   6.9973   7.1505   7.2270   7.4000   7.4345   7.5042   7.6066
     7.6407   7.7077   7.7754   7.8166   7.9435   8.0274   8.1019   8.1480
     8.1700   8.2650   8.2899   8.3508   8.4135   8.4716

     occupation numbers 
     1.0000   1.0000   1.0000   1.0000   1.0000   1.0000   1.0000   1.0000
     1.0000   1.0000   1.0000   1.0000   1.0000   1.0000   1.0000   1.0000
     1.0000   1.0000   1.0000   1.0000   1.0000   1.0000   1.0000   1.0000
     1.0000   1.0000   1.0000   1.0000   1.0000   1.0000   1.0000   1.0000
     1.0000   1.0000   1.0000   1.0000   1.0000   1.0000   1.0000   1.0000
     1.0000   1.0000   1.0000   1.0000   1.0000   1.0000   1.0000   1.0000
     1.0000   1.0000   1.0000   1.0000   1.0000   1.0000   1.0000   1.0000
     1.0000   1.0000   1.0000   1.0000   1.0000   1.0000   1.0000   1.0000
     1.0000   1.0000   1.0000   1.0000   1.0000   1.0000   1.0000   1.0000
     1.0000   1.0000   1.0000   1.0000   1.0000   1.0000   1.0000   1.0000
     1.0000   1.0000   1.0000   1.0000   1.0000   1.0000   1.0000   1.0000
     1.0000   1.0000   1.0000   1.0000   1.0000   1.0000   1.0000   1.0000
     1.0000   1.0000   1.0000   1.0001   1.0001   1.0001   1.0002   1.0004
     1.0005   1.0006   1.0008   1.0010   1.0027   1.0034   1.0040   1.0059
     1.0086   1.0125   1.0175   1.0224   1.0256   1.0315   1.0440   1.0559
     1.0630   1.0745   1.0814   1.0815   1.0599   1.0339   1.0200   0.9361
     0.8260   0.6315   0.5598   0.4655   0.2987   0.2092   0.1368   0.0950
     0.0727   0.0405   0.0181   0.0117   0.0040   0.0031   0.0019   0.0009
     0.0007   0.0004   0.0002   0.0002   0.0001   0.0000   0.0000   0.0000
     0.0000   0.0000   0.0000   0.0000   0.0000   0.0000

          k =-0.3333 0.3333-0.3333 ( 40314 PWs)   bands (ev):

    -5.8343  -5.5819  -5.3806  -5.2218  -5.0570  -4.9919  -4.8784  -4.6322
    -4.2048  -4.0748  -4.0052  -3.9208  -3.8466  -3.7384  -3.6671  -3.5172
    -3.4742  -3.3837  -3.2753  -3.1355  -2.9941  -2.9080  -2.8700  -2.7356
    -2.6875  -2.6457  -2.5689  -2.3983  -2.3550  -2.1906  -2.1084  -1.8945
    -1.7689  -1.6501  -1.4829  -1.3973  -1.3251  -1.2003  -1.0106  -0.9692
    -0.7407  -0.6501  -0.5707  -0.4765  -0.4068  -0.2928  -0.1528  -0.0516
     0.0575   0.1623   0.1891   0.3295   0.5632   0.5967   0.6978   0.8742
     1.0298   1.1061   1.2268   1.3488   1.4091   1.4897   1.5838   1.6482
     1.8023   1.8896   1.9548   2.0065   2.0544   2.1235   2.1811   2.2512
     2.3104   2.4083   2.4735   2.5115   2.6134   2.6654   2.7413   2.8061
     2.8955   2.9466   2.9759   3.0620   3.0914   3.1705   3.2076   3.2980
     3.3413   3.4166   3.4575   3.5094   3.5493   3.6114   3.6903   3.7392
     3.7773   3.8439   3.8772   3.9292   4.0116   4.0380   4.0990   4.1349
     4.1625   4.2602   4.2981   4.3223   4.3998   4.4354   4.5449   4.5940
     4.6255   4.7156   4.7524   4.8984   4.9256   4.9441   5.0697   5.1386
     5.1889   5.2494   5.3176   5.3867   5.5019   5.5979   5.7434   5.9193
     6.0437   6.1517   6.2149   6.3400   6.4423   6.4889   6.6470   6.7690
     6.9079   7.0251   7.1303   7.2435   7.2812   7.3730   7.5142   7.5405
     7.6554   7.7642   7.8204   7.8442   7.9419   8.0332   8.1156   8.1511
     8.1959   8.2676   8.3068   8.3590   8.3661   8.4916

     occupation numbers 
     1.0000   1.0000   1.0000   1.0000   1.0000   1.0000   1.0000   1.0000
     1.0000   1.0000   1.0000   1.0000   1.0000   1.0000   1.0000   1.0000
     1.0000   1.0000   1.0000   1.0000   1.0000   1.0000   1.0000   1.0000
     1.0000   1.0000   1.0000   1.0000   1.0000   1.0000   1.0000   1.0000
     1.0000   1.0000   1.0000   1.0000   1.0000   1.0000   1.0000   1.0000
     1.0000   1.0000   1.0000   1.0000   1.0000   1.0000   1.0000   1.0000
     1.0000   1.0000   1.0000   1.0000   1.0000   1.0000   1.0000   1.0000
     1.0000   1.0000   1.0000   1.0000   1.0000   1.0000   1.0000   1.0000
     1.0000   1.0000   1.0000   1.0000   1.0000   1.0000   1.0000   1.0000
     1.0000   1.0000   1.0000   1.0000   1.0000   1.0000   1.0000   1.0000
     1.0000   1.0000   1.0000   1.0000   1.0000   1.0000   1.0000   1.0000
     1.0000   1.0000   1.0000   1.0000   1.0000   1.0000   1.0000   1.0000
     1.0000   1.0000   1.0000   1.0001   1.0001   1.0002   1.0003   1.0004
     1.0004   1.0009   1.0011   1.0013   1.0022   1.0027   1.0052   1.0068
     1.0080   1.0124   1.0148   1.0272   1.0301   1.0321   1.0480   1.0575
     1.0643   1.0719   1.0788   1.0828   1.0791   1.0621   1.0051   0.8811
     0.7624   0.6464   0.5764   0.4409   0.3395   0.2975   0.1786   0.1127
     0.0620   0.0352   0.0202   0.0106   0.0084   0.0047   0.0018   0.0015
     0.0006   0.0003   0.0002   0.0001   0.0001   0.0000   0.0000   0.0000
     0.0000   0.0000   0.0000   0.0000   0.0000   0.0000

          k = 0.3333-0.3333-0.3333 ( 40314 PWs)   bands (ev):

    -5.8501  -5.5038  -5.3992  -5.3049  -5.0336  -4.9844  -4.8879  -4.6314
    -4.1222  -4.0808  -4.0171  -3.9030  -3.8558  -3.7756  -3.6619  -3.6064
    -3.4485  -3.3769  -3.2537  -3.1033  -2.9717  -2.9308  -2.8748  -2.8050
    -2.7244  -2.6407  -2.4668  -2.4290  -2.3138  -2.2138  -2.0359  -1.9553
    -1.7598  -1.6824  -1.5815  -1.3702  -1.2763  -1.1228  -1.0491  -0.9130
    -0.7912  -0.6598  -0.6206  -0.5272  -0.3276  -0.2537  -0.1560  -0.0568
     0.0006   0.1753   0.2471   0.4105   0.5798   0.6245   0.6887   0.8546
     0.9408   1.0402   1.2435   1.2767   1.3937   1.4775   1.5423   1.6534
     1.7964   1.8520   1.9172   1.9987   2.0746   2.1616   2.2605   2.3207
     2.3730   2.4130   2.4579   2.5470   2.6015   2.6372   2.7477   2.8335
     2.8807   2.9629   2.9942   3.0490   3.1226   3.1499   3.2401   3.3093
     3.3575   3.4112   3.4468   3.5277   3.6118   3.6531   3.6944   3.7162
     3.7975   3.8173   3.8626   3.9101   3.9768   4.0049   4.0411   4.1379
     4.1839   4.2151   4.2516   4.3234   4.3742   4.4827   4.5327   4.5754
     4.6233   4.6844   4.7300   4.8370   4.8862   4.9898   5.0470   5.1121
     5.1616   5.2348   5.3544   5.4884   5.5629   5.5962   5.7286   5.9284
     6.0213   6.1902   6.2251   6.3060   6.4646   6.5357   6.6374   6.7693
     6.9439   7.0263   7.1194   7.1976   7.3263   7.3525   7.5278   7.6002
     7.6933   7.8230   7.8361   7.8754   7.9201   8.0198   8.0754   8.1408
     8.1619   8.2572   8.2928   8.3348   8.4157   8.4857

     occupation numbers 
     1.0000   1.0000   1.0000   1.0000   1.0000   1.0000   1.0000   1.0000
     1.0000   1.0000   1.0000   1.0000   1.0000   1.0000   1.0000   1.0000
     1.0000   1.0000   1.0000   1.0000   1.0000   1.0000   1.0000   1.0000
     1.0000   1.0000   1.0000   1.0000   1.0000   1.0000   1.0000   1.0000
     1.0000   1.0000   1.0000   1.0000   1.0000   1.0000   1.0000   1.0000
     1.0000   1.0000   1.0000   1.0000   1.0000   1.0000   1.0000   1.0000
     1.0000   1.0000   1.0000   1.0000   1.0000   1.0000   1.0000   1.0000
     1.0000   1.0000   1.0000   1.0000   1.0000   1.0000   1.0000   1.0000
     1.0000   1.0000   1.0000   1.0000   1.0000   1.0000   1.0000   1.0000
     1.0000   1.0000   1.0000   1.0000   1.0000   1.0000   1.0000   1.0000
     1.0000   1.0000   1.0000   1.0000   1.0000   1.0000   1.0000   1.0000
     1.0000   1.0000   1.0000   1.0000   1.0000   1.0000   1.0000   1.0000
     1.0000   1.0000   1.0000   1.0001   1.0001   1.0001   1.0002   1.0004
     1.0005   1.0006   1.0008   1.0013   1.0019   1.0036   1.0048   1.0061
     1.0079   1.0107   1.0133   1.0213   1.0259   1.0376   1.0449   1.0538
     1.0607   1.0702   1.0814   1.0804   1.0700   1.0625   1.0127   0.8731
     0.7852   0.6038   0.5652   0.4768   0.3190   0.2584   0.1847   0.1125
     0.0524   0.0350   0.0215   0.0138   0.0064   0.0054   0.0016   0.0010
     0.0005   0.0002   0.0001   0.0001   0.0001   0.0000   0.0000   0.0000
     0.0000   0.0000   0.0000   0.0000   0.0000   0.0000

     the Fermi energy is     6.3793 ev

!    total energy              =    -511.65834169 Ry
     Harris-Foulkes estimate   =    -511.65834169 Ry
     estimated scf accuracy    <          7.1E-09 Ry

     The total energy is the sum of the following terms:

     one-electron contribution =     139.36988089 Ry
     hartree contribution      =      44.94891503 Ry
     xc contribution           =    -159.48121530 Ry
     ewald contribution        =    -536.54340586 Ry
     smearing contrib. (-TS)   =       0.04748355 Ry

     convergence has been achieved in  18 iterations

     Forces acting on atoms (cartesian axes, Ry/au):

     atom    1 type  1   force =    -0.01836875    0.00195418   -0.00271421
     atom    2 type  1   force =    -0.00379506   -0.00305903    0.01037475
     atom    3 type  1   force =     0.00693776    0.00711123    0.00525673
     atom    4 type  1   force =     0.01284654    0.01984310   -0.00291160
     atom    5 type  1   force =     0.00398545   -0.00738949   -0.01044792
     atom    6 type  1   force =     0.00023371    0.00219799    0.00135384
     atom    7 type  1   force =     0.01204069    0.00177074    0.00320559
     atom    8 type  1   force =    -0.00007712   -0.00326367    0.02587739
     atom    9 type  1   force =    -0.01049959   -0.00420300    0.00589105
     atom   10 type  1   force =     0.00799798   -0.00111727   -0.00613935
     atom   11 type  1   force =     0.00243397   -0.00703485   -0.00676690
     atom   12 type  1   force =    -0.00810794    0.00548282    0.00625556
     atom   13 type  1   force =    -0.00569796   -0.01472789   -0.00146253
     atom   14 type  1   force =     0.00346905    0.00501334    0.00544512
     atom   15 type  1   force =    -0.00358012    0.00714491    0.00394267
     atom   16 type  1   force =    -0.00636887   -0.00318752    0.00367560
     atom   17 type  1   force =     0.01765998    0.00651431    0.01366340
     atom   18 type  1   force =    -0.00412471    0.00350008   -0.00396744
     atom   19 type  1   force =     0.00063557   -0.01211660   -0.00617713
     atom   20 type  1   force =     0.00401375   -0.00218511    0.03257621
     atom   21 type  1   force =     0.00809387   -0.00663814    0.00081440
     atom   22 type  1   force =     0.01194706   -0.00114013   -0.00069534
     atom   23 type  1   force =    -0.00710226    0.00092747   -0.00219495
     atom   24 type  1   force =    -0.00633988   -0.00352912    0.00903068
     atom   25 type  1   force =    -0.00355356    0.01181764   -0.00395617
     atom   26 type  1   force =     0.00520878    0.00420975   -0.00510974
     atom   27 type  1   force =    -0.01744619   -0.00557767   -0.00017746
     atom   28 type  1   force =    -0.00123529   -0.01260197   -0.00052760
     atom   29 type  1   force =     0.01901464   -0.00061618    0.00072417
     atom   30 type  1   force =     0.00352587   -0.00143410   -0.01219059
     atom   31 type  1   force =    -0.00527316    0.00515535   -0.00647295
     atom   32 type  1   force =    -0.00093791   -0.00787700   -0.01100699
     atom   33 type  1   force =    -0.01384812   -0.00894575   -0.02050315
     atom   34 type  1   force =    -0.00243680   -0.00324036   -0.00252366
     atom   35 type  1   force =    -0.01385363    0.00611781    0.00919701
     atom   36 type  1   force =    -0.00876626    0.01526033   -0.00406190
     atom   37 type  1   force =    -0.00483701    0.00797268    0.00418846
     atom   38 type  1   force =     0.00878040   -0.00490133   -0.00057415
     atom   39 type  1   force =    -0.00815284    0.00750272    0.00194964
     atom   40 type  1   force =    -0.00931116   -0.00158495   -0.01717968
     atom   41 type  1   force =     0.00816169   -0.00293531   -0.00662124
     atom   42 type  1   force =    -0.00132069    0.00373921   -0.00235533
     atom   43 type  1   force =     0.00946730   -0.00137230   -0.01464071
     atom   44 type  1   force =     0.00549279   -0.01065902    0.00413527
     atom   45 type  1   force =     0.00116350    0.00603471   -0.00451281
     atom   46 type  1   force =     0.00495625   -0.00617553    0.00218591
     atom   47 type  1   force =    -0.00098445    0.01417048    0.00397221
     atom   48 type  1   force =    -0.00595076    0.01124357   -0.00039493
     atom   49 type  1   force =    -0.00014863   -0.00003186    0.00200868
     atom   50 type  1   force =     0.00377060    0.00350837   -0.00261065
     atom   51 type  1   force =    -0.00211620    0.00482780    0.00223276
     atom   52 type  1   force =    -0.00108715    0.00278606   -0.00850929
     atom   53 type  1   force =    -0.00470832    0.00468028    0.00250353
     atom   54 type  1   force =     0.00620444   -0.00583070   -0.00569001
     atom   55 type  1   force =     0.00840433   -0.00536276   -0.00303618
     atom   56 type  1   force =    -0.00294450    0.00010601    0.00420478
     atom   57 type  1   force =     0.00051038   -0.00472009    0.01147436
     atom   58 type  1   force =    -0.00327511   -0.00178424    0.00560773
     atom   59 type  1   force =    -0.00004784    0.00143796   -0.00175787
     atom   60 type  1   force =    -0.00135383    0.01192066   -0.00449520
     atom   61 type  1   force =     0.00331654   -0.00199514   -0.00486210
     atom   62 type  1   force =     0.00495205    0.01484622   -0.00108672
     atom   63 type  1   force =     0.01156110   -0.01542095   -0.00293566
     atom   64 type  1   force =    -0.00515525   -0.00838012   -0.00273330
     atom   65 type  2   force =     0.00360372    0.00049559   -0.00715796
     atom   66 type  2   force =    -0.00859638   -0.00350104   -0.00885996
     atom   67 type  2   force =     0.00434016   -0.00690683    0.01461029
     atom   68 type  2   force =     0.00344309   -0.00482277    0.00136183
     atom   69 type  2   force =     0.00157319   -0.00726473    0.00192524
     atom   70 type  2   force =    -0.01654803    0.01162414   -0.00677446
     atom   71 type  2   force =     0.01776524   -0.01171988    0.01087107
     atom   72 type  2   force =    -0.00956010    0.00433687    0.00627986
     The non-local contrib.  to forces
     atom    1 type  1   force =     0.03445228    0.01022449    0.05258911
     atom    2 type  1   force =    -0.03199247   -0.10312120    0.01847243
     atom    3 type  1   force =    -0.01684803    0.05959290   -0.01632223
     atom    4 type  1   force =     0.06326362    0.02412723   -0.00067518
     atom    5 type  1   force =    -0.03950191    0.02762740   -0.05079732
     atom    6 type  1   force =    -0.00588552    0.04659029   -0.05283022
     atom    7 type  1   force =     0.01439345    0.01750673    0.01971714
     atom    8 type  1   force =    -0.00244741   -0.06555625   -0.00291195
     atom    9 type  1   force =    -0.02560430   -0.02839343   -0.01824694
     atom   10 type  1   force =    -0.02960863    0.00662108    0.09269053
     atom   11 type  1   force =    -0.00410634   -0.02417640   -0.05346612
     atom   12 type  1   force =     0.04075249   -0.02576038   -0.00373687
     atom   13 type  1   force =    -0.00478297    0.03085793   -0.00866261
     atom   14 type  1   force =     0.01504356    0.00974950    0.01951853
     atom   15 type  1   force =    -0.02128133   -0.05386613   -0.04025482
     atom   16 type  1   force =    -0.05903961   -0.04969163    0.07402323
     atom   17 type  1   force =    -0.04233209   -0.00768431   -0.03175529
     atom   18 type  1   force =     0.02105710   -0.01291375    0.01355123
     atom   19 type  1   force =    -0.07115676   -0.05144139    0.02239208
     atom   20 type  1   force =     0.05064130   -0.05254875   -0.02966229
     atom   21 type  1   force =     0.05435297   -0.01449942    0.00555993
     atom   22 type  1   force =     0.01736645   -0.03122774    0.02519893
     atom   23 type  1   force =    -0.03434459    0.00873003    0.01682327
     atom   24 type  1   force =    -0.04879573    0.03266974   -0.07814759
     atom   25 type  1   force =    -0.02488624    0.04160640    0.02726581
     atom   26 type  1   force =    -0.04874126   -0.04798482   -0.01031637
     atom   27 type  1   force =     0.01807108   -0.01049878    0.06749196
     atom   28 type  1   force =    -0.07664898   -0.12854692   -0.01392340
     atom   29 type  1   force =    -0.06028912    0.03561961   -0.00304674
     atom   30 type  1   force =     0.03142895    0.04566610   -0.05521061
     atom   31 type  1   force =     0.05217882   -0.06394577    0.02526464
     atom   32 type  1   force =    -0.00863214    0.00591239    0.02222632
     atom   33 type  1   force =     0.07779786   -0.04834858   -0.15201046
     atom   34 type  1   force =     0.02420318   -0.01747076   -0.01537205
     atom   35 type  1   force =     0.01636455   -0.00133345    0.07379597
     atom   36 type  1   force =    -0.00375491    0.01388398    0.01498887
     atom   37 type  1   force =     0.06067117   -0.03970751   -0.06117570
     atom   38 type  1   force =     0.05322306    0.00311921   -0.07952369
     atom   39 type  1   force =     0.05895218    0.01426376   -0.02678505
     atom   40 type  1   force =    -0.07114895    0.03038399   -0.03342255
     atom   41 type  1   force =    -0.02221985   -0.00043834   -0.07056659
     atom   42 type  1   force =     0.08495059   -0.04580413   -0.03958937
     atom   43 type  1   force =     0.02527907    0.01079114    0.07360559
     atom   44 type  1   force =     0.07452603   -0.01992472   -0.01719983
     atom   45 type  1   force =    -0.05531016    0.00568549   -0.00378180
     atom   46 type  1   force =    -0.01930001   -0.05343486    0.04061556
     atom   47 type  1   force =    -0.02951215    0.00775042   -0.00263533
     atom   48 type  1   force =     0.03103619    0.07286131   -0.05023140
     atom   49 type  1   force =    -0.04466208   -0.02888050   -0.03667868
     atom   50 type  1   force =     0.01568207    0.01590254   -0.03498347
     atom   51 type  1   force =    -0.07592419    0.02070597    0.05286717
     atom   52 type  1   force =     0.05621875    0.00037652    0.04333820
     atom   53 type  1   force =    -0.05179564    0.02989615    0.01050832
     atom   54 type  1   force =     0.05064197   -0.00296840   -0.08103046
     atom   55 type  1   force =    -0.00124024   -0.03759609    0.00252436
     atom   56 type  1   force =    -0.04083628    0.05945019    0.01810510
     atom   57 type  1   force =    -0.05092331    0.02113305    0.04252072
     atom   58 type  1   force =    -0.00021884    0.00715846    0.06032988
     atom   59 type  1   force =     0.03423153   -0.00984798    0.02479721
     atom   60 type  1   force =    -0.03568090    0.06677757   -0.00148565
     atom   61 type  1   force =     0.04485214   -0.02632984    0.04226299
     atom   62 type  1   force =     0.02967874    0.02909502   -0.02717690
     atom   63 type  1   force =    -0.02344696   -0.00531649    0.05284905
     atom   64 type  1   force =     0.02755774    0.05750985   -0.05915662
     atom   65 type  2   force =     0.00000000    0.00000000    0.00000000
     atom   66 type  2   force =     0.00000000    0.00000000    0.00000000
     atom   67 type  2   force =     0.00000000    0.00000000    0.00000000
     atom   68 type  2   force =     0.00000000    0.00000000    0.00000000
     atom   69 type  2   force =     0.00000000    0.00000000    0.00000000
     atom   70 type  2   force =     0.00000000    0.00000000    0.00000000
     atom   71 type  2   force =     0.00000000    0.00000000    0.00000000
     atom   72 type  2   force =     0.00000000    0.00000000    0.00000000
[...]
     atom   25 type  1   force =     0.00000000    0.00000000    0.00000000
     atom   26 type  1   force =     0.00000000    0.00000000    0.00000000
     atom   27 type  1   force =     0.00000000    0.00000000    0.00000000
     atom   28 type  1   force =     0.00000000    0.00000000    0.00000000
     atom   29 type  1   force =     0.00000000    0.00000000    0.00000000
     atom   30 type  1   force =     0.00000000    0.00000000    0.00000000
     atom   31 type  1   force =     0.00000000    0.00000000    0.00000000
     atom   32 type  1   force =     0.00000000    0.00000000    0.00000000
     atom   33 type  1   force =     0.00000000    0.00000000    0.00000000
     atom   34 type  1   force =     0.00000000    0.00000000    0.00000000
     atom   35 type  1   force =     0.00000000    0.00000000    0.00000000
     atom   36 type  1   force =     0.00000000    0.00000000    0.00000000
     atom   37 type  1   force =     0.00000000    0.00000000    0.00000000
     atom   38 type  1   force =     0.00000000    0.00000000    0.00000000
     atom   39 type  1   force =     0.00000000    0.00000000    0.00000000
     atom   40 type  1   force =     0.00000000    0.00000000    0.00000000
     atom   41 type  1   force =     0.00000000    0.00000000    0.00000000
     atom   42 type  1   force =     0.00000000    0.00000000    0.00000000
     atom   43 type  1   force =     0.00000000    0.00000000    0.00000000
     atom   44 type  1   force =     0.00000000    0.00000000    0.00000000
     atom   45 type  1   force =     0.00000000    0.00000000    0.00000000
     atom   46 type  1   force =     0.00000000    0.00000000    0.00000000
     atom   47 type  1   force =     0.00000000    0.00000000    0.00000000
     atom   48 type  1   force =     0.00000000    0.00000000    0.00000000
     atom   49 type  1   force =     0.00000000    0.00000000    0.00000000
     atom   50 type  1   force =     0.00000000    0.00000000    0.00000000
     atom   51 type  1   force =     0.00000000    0.00000000    0.00000000
     atom   52 type  1   force =     0.00000000    0.00000000    0.00000000
     atom   53 type  1   force =     0.00000000    0.00000000    0.00000000
     atom   54 type  1   force =     0.00000000    0.00000000    0.00000000
     atom   55 type  1   force =     0.00000000    0.00000000    0.00000000
     atom   56 type  1   force =     0.00000000    0.00000000    0.00000000
     atom   57 type  1   force =     0.00000000    0.00000000    0.00000000
     atom   58 type  1   force =     0.00000000    0.00000000    0.00000000
     atom   59 type  1   force =     0.00000000    0.00000000    0.00000000
     atom   60 type  1   force =     0.00000000    0.00000000    0.00000000
     atom   61 type  1   force =     0.00000000    0.00000000    0.00000000
     atom   62 type  1   force =     0.00000000    0.00000000    0.00000000
     atom   63 type  1   force =     0.00000000    0.00000000    0.00000000
     atom   64 type  1   force =     0.00000000    0.00000000    0.00000000
     atom   65 type  2   force =     0.00000000    0.00000000    0.00000000
     atom   66 type  2   force =     0.00000000    0.00000000    0.00000000
     atom   67 type  2   force =     0.00000000    0.00000000    0.00000000
     atom   68 type  2   force =     0.00000000    0.00000000    0.00000000
     atom   69 type  2   force =     0.00000000    0.00000000    0.00000000
     atom   70 type  2   force =     0.00000000    0.00000000    0.00000000
     atom   71 type  2   force =     0.00000000    0.00000000    0.00000000
     atom   72 type  2   force =     0.00000000    0.00000000    0.00000000
     The Hubbard contrib.    to forces
     atom    1 type  1   force =     0.00000000    0.00000000    0.00000000
     atom    2 type  1   force =     0.00000000    0.00000000    0.00000000
     atom    3 type  1   force =     0.00000000    0.00000000    0.00000000
     atom    4 type  1   force =     0.00000000    0.00000000    0.00000000
     atom    5 type  1   force =     0.00000000    0.00000000    0.00000000
     atom    6 type  1   force =     0.00000000    0.00000000    0.00000000
     atom    7 type  1   force =     0.00000000    0.00000000    0.00000000
     atom    8 type  1   force =     0.00000000    0.00000000    0.00000000
     atom    9 type  1   force =     0.00000000    0.00000000    0.00000000
     atom   10 type  1   force =     0.00000000    0.00000000    0.00000000
     atom   11 type  1   force =     0.00000000    0.00000000    0.00000000
     atom   12 type  1   force =     0.00000000    0.00000000    0.00000000
     atom   13 type  1   force =     0.00000000    0.00000000    0.00000000
     atom   14 type  1   force =     0.00000000    0.00000000    0.00000000
     atom   15 type  1   force =     0.00000000    0.00000000    0.00000000
     atom   16 type  1   force =     0.00000000    0.00000000    0.00000000
     atom   17 type  1   force =     0.00000000    0.00000000    0.00000000
     atom   18 type  1   force =     0.00000000    0.00000000    0.00000000
     atom   19 type  1   force =     0.00000000    0.00000000    0.00000000
     atom   20 type  1   force =     0.00000000    0.00000000    0.00000000
     atom   21 type  1   force =     0.00000000    0.00000000    0.00000000
     atom   22 type  1   force =     0.00000000    0.00000000    0.00000000
     atom   23 type  1   force =     0.00000000    0.00000000    0.00000000
     atom   24 type  1   force =     0.00000000    0.00000000    0.00000000
     atom   25 type  1   force =     0.00000000    0.00000000    0.00000000
     atom   26 type  1   force =     0.00000000    0.00000000    0.00000000
     atom   27 type  1   force =     0.00000000    0.00000000    0.00000000
     atom   28 type  1   force =     0.00000000    0.00000000    0.00000000
     atom   29 type  1   force =     0.00000000    0.00000000    0.00000000
     atom   30 type  1   force =     0.00000000    0.00000000    0.00000000
     atom   31 type  1   force =     0.00000000    0.00000000    0.00000000
     atom   32 type  1   force =     0.00000000    0.00000000    0.00000000
     atom   33 type  1   force =     0.00000000    0.00000000    0.00000000
     atom   34 type  1   force =     0.00000000    0.00000000    0.00000000
     atom   35 type  1   force =     0.00000000    0.00000000    0.00000000
     atom   36 type  1   force =     0.00000000    0.00000000    0.00000000
     atom   37 type  1   force =     0.00000000    0.00000000    0.00000000
     atom   38 type  1   force =     0.00000000    0.00000000    0.00000000
     atom   39 type  1   force =     0.00000000    0.00000000    0.00000000
     atom   40 type  1   force =     0.00000000    0.00000000    0.00000000
     atom   41 type  1   force =     0.00000000    0.00000000    0.00000000
     atom   42 type  1   force =     0.00000000    0.00000000    0.00000000
     atom   43 type  1   force =     0.00000000    0.00000000    0.00000000
     atom   44 type  1   force =     0.00000000    0.00000000    0.00000000
     atom   45 type  1   force =     0.00000000    0.00000000    0.00000000
     atom   46 type  1   force =     0.00000000    0.00000000    0.00000000
     atom   47 type  1   force =     0.00000000    0.00000000    0.00000000
     atom   48 type  1   force =     0.00000000    0.00000000    0.00000000
     atom   49 type  1   force =     0.00000000    0.00000000    0.00000000
     atom   50 type  1   force =     0.00000000    0.00000000    0.00000000
     atom   51 type  1   force =     0.00000000    0.00000000    0.00000000
     atom   52 type  1   force =     0.00000000    0.00000000    0.00000000
     atom   53 type  1   force =     0.00000000    0.00000000    0.00000000
     atom   54 type  1   force =     0.00000000    0.00000000    0.00000000
     atom   55 type  1   force =     0.00000000    0.00000000    0.00000000
     atom   56 type  1   force =     0.00000000    0.00000000    0.00000000
     atom   57 type  1   force =     0.00000000    0.00000000    0.00000000
     atom   58 type  1   force =     0.00000000    0.00000000    0.00000000
     atom   59 type  1   force =     0.00000000    0.00000000    0.00000000
     atom   60 type  1   force =     0.00000000    0.00000000    0.00000000
     atom   61 type  1   force =     0.00000000    0.00000000    0.00000000
     atom   62 type  1   force =     0.00000000    0.00000000    0.00000000
     atom   63 type  1   force =     0.00000000    0.00000000    0.00000000
     atom   64 type  1   force =     0.00000000    0.00000000    0.00000000
     atom   65 type  2   force =     0.00000000    0.00000000    0.00000000
     atom   66 type  2   force =     0.00000000    0.00000000    0.00000000
     atom   67 type  2   force =     0.00000000    0.00000000    0.00000000
     atom   68 type  2   force =     0.00000000    0.00000000    0.00000000
     atom   69 type  2   force =     0.00000000    0.00000000    0.00000000
     atom   70 type  2   force =     0.00000000    0.00000000    0.00000000
     atom   71 type  2   force =     0.00000000    0.00000000    0.00000000
     atom   72 type  2   force =     0.00000000    0.00000000    0.00000000
     The SCF correction term to forces
     atom    1 type  1   force =     0.00001186   -0.00000581    0.00000990
     atom    2 type  1   force =     0.00000321    0.00001488   -0.00000080
     atom    3 type  1   force =     0.00001434   -0.00001303   -0.00000284
     atom    4 type  1   force =    -0.00001647   -0.00001486   -0.00000773
     atom    5 type  1   force =     0.00001541    0.00000687    0.00000798
     atom    6 type  1   force =    -0.00001193   -0.00000006   -0.00000906
     atom    7 type  1   force =    -0.00000533    0.00000928   -0.00001213
     atom    8 type  1   force =    -0.00000373   -0.00001669    0.00000282
     atom    9 type  1   force =     0.00000358   -0.00001550    0.00000946
     atom   10 type  1   force =    -0.00001788    0.00000682   -0.00000071
     atom   11 type  1   force =     0.00000590    0.00000497   -0.00000291
     atom   12 type  1   force =    -0.00001270    0.00000134    0.00000581
     atom   13 type  1   force =    -0.00000869   -0.00000285   -0.00000816
     atom   14 type  1   force =     0.00000510   -0.00000463   -0.00000945
     atom   15 type  1   force =    -0.00001400    0.00001661   -0.00000676
     atom   16 type  1   force =    -0.00001424   -0.00001364   -0.00000496
     atom   17 type  1   force =    -0.00000266   -0.00000969   -0.00000633
     atom   18 type  1   force =     0.00001747   -0.00000222   -0.00000011
     atom   19 type  1   force =    -0.00000321    0.00001052    0.00000875
     atom   20 type  1   force =    -0.00001305    0.00001004    0.00000762
     atom   21 type  1   force =     0.00001579    0.00001320    0.00001057
     atom   22 type  1   force =     0.00000531   -0.00001098    0.00000355
     atom   23 type  1   force =     0.00001355    0.00001561    0.00000594
     atom   24 type  1   force =     0.00001255   -0.00000356    0.00000073
     atom   25 type  1   force =     0.00000411    0.00001338    0.00000784
     atom   26 type  1   force =     0.00001685   -0.00001453   -0.00000801
     atom   27 type  1   force =    -0.00001202   -0.00001107   -0.00000002
     atom   28 type  1   force =     0.00001636   -0.00001882    0.00000142
     atom   29 type  1   force =    -0.00000225    0.00000130    0.00000532
     atom   30 type  1   force =    -0.00001707   -0.00001762   -0.00000355
     atom   31 type  1   force =     0.00001384   -0.00001520    0.00000502
     atom   32 type  1   force =    -0.00000432    0.00001509   -0.00000512
     atom   33 type  1   force =     0.00000747    0.00000295    0.00000768
     atom   34 type  1   force =    -0.00001110    0.00001584   -0.00000156
     atom   35 type  1   force =     0.00001411   -0.00000752   -0.00000934
     atom   36 type  1   force =    -0.00001651    0.00000919   -0.00000766
     atom   37 type  1   force =    -0.00000653    0.00000880    0.00000796
     atom   38 type  1   force =     0.00000908    0.00001405   -0.00000289
     atom   39 type  1   force =    -0.00001466   -0.00001093   -0.00000164
     atom   40 type  1   force =     0.00001682   -0.00001750    0.00000425
     atom   41 type  1   force =    -0.00001340    0.00000637    0.00000233
     atom   42 type  1   force =     0.00001606   -0.00001428   -0.00000438
     atom   43 type  1   force =     0.00000054   -0.00001603   -0.00000410
     atom   44 type  1   force =     0.00000664    0.00000931   -0.00000902
     atom   45 type  1   force =     0.00000831    0.00000178   -0.00000754
     atom   46 type  1   force =    -0.00001826   -0.00001557    0.00000029
     atom   47 type  1   force =     0.00001384    0.00001493    0.00000107
     atom   48 type  1   force =    -0.00001421    0.00001947    0.00000884
     atom   49 type  1   force =     0.00000338   -0.00001365   -0.00000348
     atom   50 type  1   force =     0.00000991    0.00001339    0.00000177
     atom   51 type  1   force =    -0.00001972   -0.00001161    0.00000643
     atom   52 type  1   force =     0.00001381    0.00000675    0.00000791
     atom   53 type  1   force =     0.00000600   -0.00001149    0.00000430
     atom   54 type  1   force =    -0.00001643   -0.00001527    0.00001058
     atom   55 type  1   force =     0.00000553    0.00001575   -0.00000653
     atom   56 type  1   force =     0.00001619    0.00000428   -0.00000999
     atom   57 type  1   force =    -0.00000542   -0.00001775    0.00000523
     atom   58 type  1   force =    -0.00001236    0.00001596    0.00000773
     atom   59 type  1   force =    -0.00001411    0.00001453   -0.00000550
     atom   60 type  1   force =     0.00001964   -0.00001240    0.00000615
     atom   61 type  1   force =     0.00001559    0.00001542    0.00000262
     atom   62 type  1   force =    -0.00001533   -0.00000400   -0.00000172
     atom   63 type  1   force =    -0.00001418   -0.00000733    0.00000583
     atom   64 type  1   force =     0.00000205    0.00000391   -0.00000877
     atom   65 type  2   force =     0.00000006    0.00000032    0.00000255
     atom   66 type  2   force =    -0.00000232   -0.00000365   -0.00000094
     atom   67 type  2   force =    -0.00000025   -0.00000008    0.00000090
     atom   68 type  2   force =    -0.00000485   -0.00000134   -0.00000043
     atom   69 type  2   force =     0.00000151    0.00000438   -0.00000057
     atom   70 type  2   force =     0.00000001   -0.00000379    0.00000096
     atom   71 type  2   force =     0.00000273   -0.00000047    0.00000171
     atom   72 type  2   force =     0.00000339    0.00000431    0.00000336

     Total force =     0.116389     Total SCF correction =     0.000148


     Computing stress (Cartesian axis) and pressure

          total   stress  (Ry/bohr**3)                   (kbar)     P=   13.15
   0.00005019  -0.00005700   0.00003256          7.38     -8.39      4.79
  -0.00005700   0.00007044  -0.00009897         -8.39     10.36    -14.56
   0.00003256  -0.00009897   0.00014759          4.79    -14.56     21.71

     kinetic stress (kbar)   2329.56    -13.87      3.98
                              -13.87   2322.51    -14.57
                                3.98    -14.57   2354.76

     local   stress (kbar)  -1428.93    -28.48     19.13
                              -28.48  -1209.41     27.37
                               19.13     27.37  -1282.25

     nonloc. stress (kbar)   2555.17      4.17     -8.53
                                4.17   2542.91      2.00
                               -8.53      2.00   2556.85

     hartree stress (kbar)    293.10      0.52      3.78
                                0.52    208.05    -11.79
                                3.78    -11.79    252.55

     exc-cor stress (kbar)   -819.33      0.20     -0.08
                                0.20   -819.27     -0.17
                               -0.08     -0.17   -820.12

     corecor stress (kbar)      0.00      0.00      0.00
                                0.00      0.00      0.00
                                0.00      0.00      0.00

     ewald   stress (kbar)  -2922.18     29.06    -13.49
                               29.06  -3034.43    -17.41
                              -13.49    -17.41  -3040.08

     hubbard stress (kbar)      0.00      0.00      0.00
                                0.00      0.00      0.00
                                0.00      0.00      0.00

     london  stress (kbar)      0.00      0.00      0.00
                                0.00      0.00      0.00
                                0.00      0.00      0.00

     DFT-D3  stress (kbar)      0.00      0.00      0.00
                                0.00      0.00      0.00
                                0.00      0.00      0.00

     XDM     stress (kbar)      0.00      0.00      0.00
                                0.00      0.00      0.00
                                0.00      0.00      0.00

     dft-nl  stress (kbar)      0.00      0.00      0.00
                                0.00      0.00      0.00
                                0.00      0.00      0.00

     TS-vdW  stress (kbar)      0.00      0.00      0.00
                                0.00      0.00      0.00
                                0.00      0.00      0.00



     Writing output data file liquid_optimize5.save

     init_run     :     22.67s CPU     24.03s WALL (       1 calls)
     electrons    :    736.76s CPU    801.50s WALL (       1 calls)
     forces       :      4.76s CPU      4.79s WALL (       1 calls)
     stress       :     28.58s CPU     28.62s WALL (       1 calls)

     Called by init_run:
     wfcinit      :     21.98s CPU     23.15s WALL (       1 calls)
     wfcinit:atom :      0.13s CPU      0.26s WALL (      14 calls)
     wfcinit:wfcr :     20.08s CPU     20.86s WALL (      14 calls)
     potinit      :      0.19s CPU      0.37s WALL (       1 calls)

     Called by electrons:
     c_bands      :    653.39s CPU    713.61s WALL (      19 calls)
     sum_band     :     81.76s CPU     85.03s WALL (      19 calls)
     v_of_rho     :      1.42s CPU      1.48s WALL (      19 calls)
     v_h          :      0.07s CPU      0.08s WALL (      19 calls)
     v_xc         :      1.36s CPU      1.40s WALL (      19 calls)
     mix_rho      :      0.23s CPU      0.26s WALL (      19 calls)

     Called by c_bands:
     init_us_2    :      4.98s CPU      5.03s WALL (     574 calls)
     cegterg      :    644.72s CPU    675.29s WALL (     266 calls)

     Called by sum_band:

     Called by *egterg:
     h_psi        :    452.88s CPU    467.95s WALL (    1165 calls)
     g_psi        :      1.91s CPU      1.91s WALL (     885 calls)
     cdiaghg      :     72.83s CPU     73.02s WALL (    1137 calls)
     cegterg:over :     51.95s CPU     52.65s WALL (     885 calls)
     cegterg:upda :     37.47s CPU     37.52s WALL (     885 calls)
     cegterg:last :     19.79s CPU     19.81s WALL (     266 calls)

     Called by h_psi:
     h_psi:pot    :    449.85s CPU    464.76s WALL (    1165 calls)
     h_psi:calbec :     41.59s CPU     42.03s WALL (    1165 calls)
     vloc_psi     :    364.59s CPU    379.02s WALL (    1165 calls)
     add_vuspsi   :     43.65s CPU     43.70s WALL (    1165 calls)

     General routines
     calbec       :     46.86s CPU     47.34s WALL (    1235 calls)
     fft          :      0.65s CPU      0.71s WALL (     218 calls)
     fftw         :    409.48s CPU    426.05s WALL (  245564 calls)

     Parallel routines
     fft_scatt_xy :     50.67s CPU     53.88s WALL (  245782 calls)
     fft_scatt_yz :     71.04s CPU     76.57s WALL (  245782 calls)

     PWSCF        : 13m13.63s CPU    14m22.72s WALL


   This run was terminated on:   8:38: 6   7Nov2020            

=------------------------------------------------------------------------------=
   JOB DONE.
=------------------------------------------------------------------------------=
