
     Program PWSCF v.6.2 (svn rev. 14038) starts on  7Nov2020 at  8:30:25 

     This program is part of the open-source Quantum ESPRESSO suite
     for quantum simulation of materials; please cite
         "P. Giannozzi et al., J. Phys.:Condens. Matter 21 395502 (2009);
         "P. Giannozzi et al., J. Phys.:Condens. Matter 29 465901 (2017);
          URL http://www.quantum-espresso.org", 
     in publications or presentations arising from this work. More details at
     http://www.quantum-espresso.org/quote

     Parallel version (MPI), running on     8 processors

     MPI processes distributed on     1 nodes
     R & G space division:  proc/nbgrp/npool/nimage =       8
     Waiting for input...
     Reading input from standard input
Warning: card &IONS ignored
Warning: card / ignored

     Current dimensions of program PWSCF are:
     Max number of different atomic species (ntypx) = 10
     Max number of k-points (npk) =  40000
     Max angular momentum in pseudopotentials (lmaxx) =  3

     Subspace diagonalization in iterative solution of the eigenvalue problem:
     a serial algorithm will be used


     Parallelization info
     --------------------
     sticks:   dense  smooth     PW     G-vecs:    dense   smooth      PW
     Min         712     712    185                40336    40336    5464
     Max         714     714    187                40337    40337    5470
     Sum        5705    5705   1489               322693   322693   43723



     bravais-lattice index     =            0
     lattice parameter (alat)  =      20.6245  a.u.
     unit-cell volume          =    8773.0332 (a.u.)^3
     number of atoms/cell      =           72
     number of atomic types    =            2
     number of electrons       =       264.00
     number of Kohn-Sham states=          158
     kinetic-energy cutoff     =      42.0000  Ry
     charge density cutoff     =     168.0000  Ry
     convergence threshold     =      1.0E-08
     mixing beta               =       0.3000
     number of iterations used =            8  plain     mixing
     Exchange-correlation      = SLA-PW-PBX-PBC ( 1  4  3  4 0 0)

     celldm(1)=  20.624492  celldm(2)=   0.000000  celldm(3)=   0.000000
     celldm(4)=   0.000000  celldm(5)=   0.000000  celldm(6)=   0.000000

     crystal axes: (cart. coord. in units of alat)
               a(1) = (   1.000000   0.000000   0.000000 )  
               a(2) = (   0.000000   1.000000   0.000000 )  
               a(3) = (   0.000000   0.000000   1.000000 )  

     reciprocal axes: (cart. coord. in units 2 pi/alat)
               b(1) = (  1.000000  0.000000  0.000000 )  
               b(2) = (  0.000000  1.000000  0.000000 )  
               b(3) = (  0.000000  0.000000  1.000000 )  


     PseudoPot. # 1 for Si read from file:
     ./Si.pbe-hgh.UPF
     MD5 check sum: 9a9f0f6e09139bfdb36b03ff6bc35900
     Pseudo is Norm-conserving, Zval =  4.0
     Generated in analytical, separable form
     Using radial grid of 1141 points,  3 beta functions with: 
                l(1) =   0
                l(2) =   0
                l(3) =   1

     PseudoPot. # 2 for H  read from file:
     ./H.pbe-hgh.UPF
     MD5 check sum: 5f350582108a937bec95f27f5610ab08
     Pseudo is Norm-conserving, Zval =  1.0
     Generated in analytical, separable form
     Using radial grid of  929 points,  0 beta functions with: 

     atomic species   valence    mass     pseudopotential
        Si             4.00    28.08000     Si( 1.00)
        H              1.00     1.00784     H ( 1.00)

     No symmetry found


                                    s                        frac. trans.

      isym =  1     identity                                     

 cryst.   s( 1) = (     1          0          0      )
                  (     0          1          0      )
                  (     0          0          1      )

 cart.    s( 1) = (  1.0000000  0.0000000  0.0000000 )
                  (  0.0000000  1.0000000  0.0000000 )
                  (  0.0000000  0.0000000  1.0000000 )


   Cartesian axes

     site n.     atom                  positions (alat units)
         1           Si  tau(   1) = (   0.9399430   0.1160460   0.4625010  )
         2           Si  tau(   2) = (   0.3765500   0.0763971   0.9460090  )
         3           Si  tau(   3) = (   0.4468490   0.3399180   0.3460270  )
         4           Si  tau(   4) = (   0.8929890   0.3506180   0.1390380  )
         5           Si  tau(   5) = (   0.2810750   0.8499540   0.2647040  )
         6           Si  tau(   6) = (   0.4317560   0.6465880   0.4889750  )
         7           Si  tau(   7) = (   0.6455160   0.2617570   0.8591220  )
         8           Si  tau(   8) = (   0.3981110   0.5845160   0.9659690  )
         9           Si  tau(   9) = (   0.4083950   0.9952070   0.5588070  )
        10           Si  tau(  10) = (   0.7003520   0.4541050   0.7655790  )
        11           Si  tau(  11) = (   0.3411720   0.3247890   0.6857350  )
        12           Si  tau(  12) = (   0.2238650   0.8746150   0.5011050  )
        13           Si  tau(  13) = (   0.9134530   0.8726600   0.6774230  )
        14           Si  tau(  14) = (   0.4893530   0.8950790   0.9792720  )
        15           Si  tau(  15) = (   0.1564470   0.1627350   0.2462320  )
        16           Si  tau(  16) = (   0.6558840   0.2101180   0.6380770  )
        17           Si  tau(  17) = (   0.2127710   0.8016800   0.7366960  )
        18           Si  tau(  18) = (   0.0132953   0.8153570   0.4946020  )
        19           Si  tau(  19) = (   0.5315750   0.4517430   0.1813000  )
        20           Si  tau(  20) = (   0.3319640   0.3879730   0.8945570  )
        21           Si  tau(  21) = (   0.8784440   0.9317370   0.3642640  )
        22           Si  tau(  22) = (   0.3492490   0.1138520   0.7324660  )
        23           Si  tau(  23) = (   0.1549890   0.1157450   0.4879550  )
        24           Si  tau(  24) = (   0.5113780   0.3475000   0.5576220  )
        25           Si  tau(  25) = (   0.2317690   0.6563460   0.5706930  )
        26           Si  tau(  26) = (   0.6409670   0.0950033   0.3280980  )
        27           Si  tau(  27) = (   0.3175360   0.0517092   0.3574470  )
        28           Si  tau(  28) = (   0.6054470   0.5415830   0.5812020  )
        29           Si  tau(  29) = (   0.6077450   0.8008290   0.1428990  )
        30           Si  tau(  30) = (   0.7348080   0.4371770   0.2519930  )
        31           Si  tau(  31) = (   0.0256446   0.7889500   0.8421700  )
        32           Si  tau(  32) = (   0.7000420   0.8747970   0.6836080  )
        33           Si  tau(  33) = (   0.6703850   0.9552060   0.8817130  )
        34           Si  tau(  34) = (   0.8266000   0.0213213   0.0148622  )
        35           Si  tau(  35) = (   0.3290930   0.6558890   0.1674200  )
        36           Si  tau(  36) = (   0.6158820   0.5915590   0.9082090  )
        37           Si  tau(  37) = (   0.0212735   0.9310790   0.0076417  )
        38           Si  tau(  38) = (   0.5776680   0.7059310   0.7245660  )
        39           Si  tau(  39) = (   0.4772430   0.2617850   0.0040172  )
        40           Si  tau(  40) = (   0.6202600   0.0177298   0.5363080  )
        41           Si  tau(  41) = (   0.3991460   0.7585590   0.8380160  )
        42           Si  tau(  42) = (   0.9584290   0.6003920   0.9221370  )
        43           Si  tau(  43) = (   0.9609700   0.0878596   0.6811840  )
        44           Si  tau(  44) = (   0.9733910   0.2667630   0.8157990  )
        45           Si  tau(  45) = (   0.8283830   0.2284940   0.9704370  )
        46           Si  tau(  46) = (   0.1754330   0.0987036   0.0353667  )
        47           Si  tau(  47) = (   0.9159360   0.4630830   0.7426890  )
        48           Si  tau(  48) = (   0.9935740   0.4337040   0.5315450  )
        49           Si  tau(  49) = (   0.0559209   0.4661240   0.0628052  )
        50           Si  tau(  50) = (   0.0676074   0.6053570   0.4258390  )
        51           Si  tau(  51) = (   0.1669010   0.5339990   0.2388340  )
        52           Si  tau(  52) = (   0.4648300   0.1610340   0.2271890  )
        53           Si  tau(  53) = (   0.9806340   0.2870970   0.3292570  )
        54           Si  tau(  54) = (   0.2341760   0.3508830   0.3276060  )
        55           Si  tau(  55) = (   0.7690400   0.6823130   0.0340218  )
        56           Si  tau(  56) = (   0.1678760   0.0136229   0.6849170  )
        57           Si  tau(  57) = (   0.5233790   0.6569250   0.2834250  )
        58           Si  tau(  58) = (   0.7406950   0.9580910   0.2006760  )
        59           Si  tau(  59) = (   0.7693060   0.2577000   0.3809170  )
        60           Si  tau(  60) = (   0.7121640   0.6011640   0.3958230  )
        61           Si  tau(  61) = (   0.9596380   0.7571110   0.1295120  )
        62           Si  tau(  62) = (   0.1817690   0.3288930   0.5379640  )
        63           Si  tau(  63) = (   0.8947200   0.7100230   0.3343680  )
        64           Si  tau(  64) = (   0.1418950   0.2993240   0.9494560  )
        65           H   tau(  65) = (   0.7388670   0.2845840   0.5224090  )
        66           H   tau(  66) = (   0.4727990   0.7763830   0.5431960  )
        67           H   tau(  67) = (   0.4022610   0.5215450   0.4090570  )
        68           H   tau(  68) = (   0.6276900   0.0851089   0.8385120  )
        69           H   tau(  69) = (   0.7698500   0.9162620   0.4555850  )
        70           H   tau(  70) = (   0.7604590   0.5729380   0.1335380  )
        71           H   tau(  71) = (   0.2700480   0.9195550   0.1438250  )
        72           H   tau(  72) = (   0.1420790   0.8557770   0.2468210  )

   Crystallographic axes

     site n.     atom                  positions (cryst. coord.)
         1           Si  tau(   1) = (  0.9399430  0.1160460  0.4625010  )
         2           Si  tau(   2) = (  0.3765500  0.0763971  0.9460090  )
         3           Si  tau(   3) = (  0.4468490  0.3399180  0.3460270  )
         4           Si  tau(   4) = (  0.8929890  0.3506180  0.1390380  )
         5           Si  tau(   5) = (  0.2810750  0.8499540  0.2647040  )
         6           Si  tau(   6) = (  0.4317560  0.6465880  0.4889750  )
         7           Si  tau(   7) = (  0.6455160  0.2617570  0.8591220  )
         8           Si  tau(   8) = (  0.3981110  0.5845160  0.9659690  )
         9           Si  tau(   9) = (  0.4083950  0.9952070  0.5588070  )
        10           Si  tau(  10) = (  0.7003520  0.4541050  0.7655790  )
        11           Si  tau(  11) = (  0.3411720  0.3247890  0.6857350  )
        12           Si  tau(  12) = (  0.2238650  0.8746150  0.5011050  )
        13           Si  tau(  13) = (  0.9134530  0.8726600  0.6774230  )
        14           Si  tau(  14) = (  0.4893530  0.8950790  0.9792720  )
        15           Si  tau(  15) = (  0.1564470  0.1627350  0.2462320  )
        16           Si  tau(  16) = (  0.6558840  0.2101180  0.6380770  )
        17           Si  tau(  17) = (  0.2127710  0.8016800  0.7366960  )
        18           Si  tau(  18) = (  0.0132953  0.8153570  0.4946020  )
        19           Si  tau(  19) = (  0.5315750  0.4517430  0.1813000  )
        20           Si  tau(  20) = (  0.3319640  0.3879730  0.8945570  )
        21           Si  tau(  21) = (  0.8784440  0.9317370  0.3642640  )
        22           Si  tau(  22) = (  0.3492490  0.1138520  0.7324660  )
        23           Si  tau(  23) = (  0.1549890  0.1157450  0.4879550  )
        24           Si  tau(  24) = (  0.5113780  0.3475000  0.5576220  )
        25           Si  tau(  25) = (  0.2317690  0.6563460  0.5706930  )
        26           Si  tau(  26) = (  0.6409670  0.0950033  0.3280980  )
        27           Si  tau(  27) = (  0.3175360  0.0517092  0.3574470  )
        28           Si  tau(  28) = (  0.6054470  0.5415830  0.5812020  )
        29           Si  tau(  29) = (  0.6077450  0.8008290  0.1428990  )
        30           Si  tau(  30) = (  0.7348080  0.4371770  0.2519930  )
        31           Si  tau(  31) = (  0.0256446  0.7889500  0.8421700  )
        32           Si  tau(  32) = (  0.7000420  0.8747970  0.6836080  )
        33           Si  tau(  33) = (  0.6703850  0.9552060  0.8817130  )
        34           Si  tau(  34) = (  0.8266000  0.0213213  0.0148622  )
        35           Si  tau(  35) = (  0.3290930  0.6558890  0.1674200  )
        36           Si  tau(  36) = (  0.6158820  0.5915590  0.9082090  )
        37           Si  tau(  37) = (  0.0212735  0.9310790  0.0076417  )
        38           Si  tau(  38) = (  0.5776680  0.7059310  0.7245660  )
        39           Si  tau(  39) = (  0.4772430  0.2617850  0.0040172  )
        40           Si  tau(  40) = (  0.6202600  0.0177298  0.5363080  )
        41           Si  tau(  41) = (  0.3991460  0.7585590  0.8380160  )
        42           Si  tau(  42) = (  0.9584290  0.6003920  0.9221370  )
        43           Si  tau(  43) = (  0.9609700  0.0878596  0.6811840  )
        44           Si  tau(  44) = (  0.9733910  0.2667630  0.8157990  )
        45           Si  tau(  45) = (  0.8283830  0.2284940  0.9704370  )
        46           Si  tau(  46) = (  0.1754330  0.0987036  0.0353667  )
        47           Si  tau(  47) = (  0.9159360  0.4630830  0.7426890  )
        48           Si  tau(  48) = (  0.9935740  0.4337040  0.5315450  )
        49           Si  tau(  49) = (  0.0559209  0.4661240  0.0628052  )
        50           Si  tau(  50) = (  0.0676074  0.6053570  0.4258390  )
        51           Si  tau(  51) = (  0.1669010  0.5339990  0.2388340  )
        52           Si  tau(  52) = (  0.4648300  0.1610340  0.2271890  )
        53           Si  tau(  53) = (  0.9806340  0.2870970  0.3292570  )
        54           Si  tau(  54) = (  0.2341760  0.3508830  0.3276060  )
        55           Si  tau(  55) = (  0.7690400  0.6823130  0.0340218  )
        56           Si  tau(  56) = (  0.1678760  0.0136229  0.6849170  )
        57           Si  tau(  57) = (  0.5233790  0.6569250  0.2834250  )
        58           Si  tau(  58) = (  0.7406950  0.9580910  0.2006760  )
        59           Si  tau(  59) = (  0.7693060  0.2577000  0.3809170  )
        60           Si  tau(  60) = (  0.7121640  0.6011640  0.3958230  )
        61           Si  tau(  61) = (  0.9596380  0.7571110  0.1295120  )
        62           Si  tau(  62) = (  0.1817690  0.3288930  0.5379640  )
        63           Si  tau(  63) = (  0.8947200  0.7100230  0.3343680  )
        64           Si  tau(  64) = (  0.1418950  0.2993240  0.9494560  )
        65           H   tau(  65) = (  0.7388670  0.2845840  0.5224090  )
        66           H   tau(  66) = (  0.4727990  0.7763830  0.5431960  )
        67           H   tau(  67) = (  0.4022610  0.5215450  0.4090570  )
        68           H   tau(  68) = (  0.6276900  0.0851089  0.8385120  )
        69           H   tau(  69) = (  0.7698500  0.9162620  0.4555850  )
        70           H   tau(  70) = (  0.7604590  0.5729380  0.1335380  )
        71           H   tau(  71) = (  0.2700480  0.9195550  0.1438250  )
        72           H   tau(  72) = (  0.1420790  0.8557770  0.2468210  )

     number of k points=    14  Marzari-Vanderbilt smearing, width (Ry)=  0.0500
                       cart. coord. in units 2pi/alat
        k(    1) = (   0.0000000   0.0000000   0.0000000), wk =   0.0740741
        k(    2) = (   0.0000000   0.0000000   0.3333333), wk =   0.1481481
        k(    3) = (   0.0000000   0.3333333   0.3333333), wk =   0.1481481
        k(    4) = (   0.3333333   0.3333333   0.3333333), wk =   0.1481481
        k(    5) = (   0.3333333   0.0000000   0.0000000), wk =   0.1481481
        k(    6) = (   0.0000000   0.3333333   0.0000000), wk =   0.1481481
        k(    7) = (   0.0000000  -0.3333333   0.3333333), wk =   0.1481481
        k(    8) = (   0.3333333   0.0000000  -0.3333333), wk =   0.1481481
        k(    9) = (  -0.3333333   0.0000000  -0.3333333), wk =   0.1481481
        k(   10) = (   0.3333333  -0.3333333   0.0000000), wk =   0.1481481
        k(   11) = (  -0.3333333  -0.3333333   0.0000000), wk =   0.1481481
        k(   12) = (  -0.3333333  -0.3333333   0.3333333), wk =   0.1481481
        k(   13) = (  -0.3333333   0.3333333  -0.3333333), wk =   0.1481481
        k(   14) = (   0.3333333  -0.3333333  -0.3333333), wk =   0.1481481

                       cryst. coord.
        k(    1) = (   0.0000000   0.0000000   0.0000000), wk =   0.0740741
        k(    2) = (   0.0000000   0.0000000   0.3333333), wk =   0.1481481
        k(    3) = (   0.0000000   0.3333333   0.3333333), wk =   0.1481481
        k(    4) = (   0.3333333   0.3333333   0.3333333), wk =   0.1481481
        k(    5) = (   0.3333333   0.0000000   0.0000000), wk =   0.1481481
        k(    6) = (   0.0000000   0.3333333   0.0000000), wk =   0.1481481
        k(    7) = (   0.0000000  -0.3333333   0.3333333), wk =   0.1481481
        k(    8) = (   0.3333333   0.0000000  -0.3333333), wk =   0.1481481
        k(    9) = (  -0.3333333   0.0000000  -0.3333333), wk =   0.1481481
        k(   10) = (   0.3333333  -0.3333333   0.0000000), wk =   0.1481481
        k(   11) = (  -0.3333333  -0.3333333   0.0000000), wk =   0.1481481
        k(   12) = (  -0.3333333  -0.3333333   0.3333333), wk =   0.1481481
        k(   13) = (  -0.3333333   0.3333333  -0.3333333), wk =   0.1481481
        k(   14) = (   0.3333333  -0.3333333  -0.3333333), wk =   0.1481481

     Dense  grid:   322693 G-vectors     FFT dimensions: (  90,  90,  90)

     Dynamical RAM for                 wfc:      12.15 MB

     Dynamical RAM for     wfc (w. buffer):     182.26 MB

     Dynamical RAM for           str. fact:       1.23 MB

     Dynamical RAM for           local pot:       0.00 MB

     Dynamical RAM for          nlocal pot:      24.61 MB

     Dynamical RAM for                qrad:       1.17 MB

     Dynamical RAM for          rho,v,vnew:       4.07 MB

     Dynamical RAM for               rhoin:       1.36 MB

     Dynamical RAM for            rho*nmix:       9.85 MB

     Dynamical RAM for           G-vectors:       2.62 MB

     Dynamical RAM for          h,s,v(r/c):      18.28 MB

     Dynamical RAM for          <psi|beta>:       0.77 MB

     Dynamical RAM for                 psi:      48.60 MB

     Dynamical RAM for                hpsi:      48.60 MB

     Dynamical RAM for      wfcinit/wfcrot:      42.20 MB

     Estimated static dynamical RAM per process >     232.72 MB

     Estimated max dynamical RAM per process >     348.98 MB

     Estimated total dynamical RAM >       2.73 GB

     Initial potential from superposition of free atoms

     starting charge  263.96413, renormalised to  264.00000
     Starting wfc are  264 randomized atomic wfcs

     total cpu time spent up to now is       24.8 secs

     Self-consistent Calculation

     iteration #  1     ecut=    42.00 Ry     beta= 0.30
     Davidson diagonalization with overlap
     ethr =  1.00E-02,  avg # of iterations =  3.0

     Threshold (ethr) on eigenvalues was too large:
     Diagonalizing with lowered threshold

     Davidson diagonalization with overlap
     ethr =  8.11E-04,  avg # of iterations =  2.1

     total cpu time spent up to now is      122.3 secs

     total energy              =    -511.42990651 Ry
     Harris-Foulkes estimate   =    -511.94299574 Ry
     estimated scf accuracy    <       2.13229927 Ry

     iteration #  2     ecut=    42.00 Ry     beta= 0.30
     Davidson diagonalization with overlap
     ethr =  8.08E-04,  avg # of iterations =  2.7

     total cpu time spent up to now is      158.9 secs

     total energy              =    -511.34744750 Ry
     Harris-Foulkes estimate   =    -511.64648831 Ry
     estimated scf accuracy    <       1.22798312 Ry

     iteration #  3     ecut=    42.00 Ry     beta= 0.30
     Davidson diagonalization with overlap
     ethr =  4.65E-04,  avg # of iterations =  3.8

     total cpu time spent up to now is      199.7 secs

     total energy              =    -511.36139887 Ry
     Harris-Foulkes estimate   =    -511.60876952 Ry
     estimated scf accuracy    <       1.26357101 Ry

     iteration #  4     ecut=    42.00 Ry     beta= 0.30
     Davidson diagonalization with overlap
     ethr =  4.65E-04,  avg # of iterations =  2.0

     total cpu time spent up to now is      233.7 secs

     total energy              =    -511.45001511 Ry
     Harris-Foulkes estimate   =    -511.48451692 Ry
     estimated scf accuracy    <       0.16111316 Ry

     iteration #  5     ecut=    42.00 Ry     beta= 0.30
     Davidson diagonalization with overlap
     ethr =  6.10E-05,  avg # of iterations =  6.6

     total cpu time spent up to now is      282.9 secs

     total energy              =    -511.46152389 Ry
     Harris-Foulkes estimate   =    -511.47818688 Ry
     estimated scf accuracy    <       0.08129893 Ry

     iteration #  6     ecut=    42.00 Ry     beta= 0.30
     Davidson diagonalization with overlap
     ethr =  3.08E-05,  avg # of iterations =  3.6

     total cpu time spent up to now is      322.3 secs

     total energy              =    -511.46860399 Ry
     Harris-Foulkes estimate   =    -511.47367636 Ry
     estimated scf accuracy    <       0.02841786 Ry

     iteration #  7     ecut=    42.00 Ry     beta= 0.30
     Davidson diagonalization with overlap
     ethr =  1.08E-05,  avg # of iterations =  2.6

     total cpu time spent up to now is      358.2 secs

     total energy              =    -511.47070450 Ry
     Harris-Foulkes estimate   =    -511.47155817 Ry
     estimated scf accuracy    <       0.00401770 Ry

     iteration #  8     ecut=    42.00 Ry     beta= 0.30
     Davidson diagonalization with overlap
     ethr =  1.52E-06,  avg # of iterations =  6.9

     total cpu time spent up to now is      413.2 secs

     total energy              =    -511.47104989 Ry
     Harris-Foulkes estimate   =    -511.47157179 Ry
     estimated scf accuracy    <       0.00267204 Ry

     iteration #  9     ecut=    42.00 Ry     beta= 0.30
     Davidson diagonalization with overlap
     ethr =  1.01E-06,  avg # of iterations =  3.0

     total cpu time spent up to now is      452.8 secs

     total energy              =    -511.47127028 Ry
     Harris-Foulkes estimate   =    -511.47139199 Ry
     estimated scf accuracy    <       0.00061735 Ry

     iteration # 10     ecut=    42.00 Ry     beta= 0.30
     Davidson diagonalization with overlap
     ethr =  2.34E-07,  avg # of iterations =  3.0

     total cpu time spent up to now is      496.8 secs

     total energy              =    -511.47131814 Ry
     Harris-Foulkes estimate   =    -511.47136387 Ry
     estimated scf accuracy    <       0.00021202 Ry

     iteration # 11     ecut=    42.00 Ry     beta= 0.30
     Davidson diagonalization with overlap
     ethr =  8.03E-08,  avg # of iterations =  3.0

     total cpu time spent up to now is      542.1 secs

     total energy              =    -511.47133848 Ry
     Harris-Foulkes estimate   =    -511.47135345 Ry
     estimated scf accuracy    <       0.00007710 Ry

     iteration # 12     ecut=    42.00 Ry     beta= 0.30
     Davidson diagonalization with overlap
     ethr =  2.92E-08,  avg # of iterations =  3.0

     total cpu time spent up to now is      587.9 secs

     total energy              =    -511.47134553 Ry
     Harris-Foulkes estimate   =    -511.47134850 Ry
     estimated scf accuracy    <       0.00001663 Ry

     iteration # 13     ecut=    42.00 Ry     beta= 0.30
     Davidson diagonalization with overlap
     ethr =  6.30E-09,  avg # of iterations =  3.0

     total cpu time spent up to now is      637.5 secs

     total energy              =    -511.47134683 Ry
     Harris-Foulkes estimate   =    -511.47134899 Ry
     estimated scf accuracy    <       0.00001136 Ry

     iteration # 14     ecut=    42.00 Ry     beta= 0.30
     Davidson diagonalization with overlap
     ethr =  4.30E-09,  avg # of iterations =  2.9

     total cpu time spent up to now is      679.8 secs

     total energy              =    -511.47134809 Ry
     Harris-Foulkes estimate   =    -511.47134821 Ry
     estimated scf accuracy    <       0.00000153 Ry

     iteration # 15     ecut=    42.00 Ry     beta= 0.30
     Davidson diagonalization with overlap
     ethr =  5.78E-10,  avg # of iterations =  3.0

     total cpu time spent up to now is      726.2 secs

     total energy              =    -511.47134832 Ry
     Harris-Foulkes estimate   =    -511.47134834 Ry
     estimated scf accuracy    <       0.00000067 Ry

     iteration # 16     ecut=    42.00 Ry     beta= 0.30
     Davidson diagonalization with overlap
     ethr =  2.52E-10,  avg # of iterations =  3.0

     total cpu time spent up to now is      774.1 secs

     total energy              =    -511.47134838 Ry
     Harris-Foulkes estimate   =    -511.47134840 Ry
     estimated scf accuracy    <       0.00000019 Ry

     iteration # 17     ecut=    42.00 Ry     beta= 0.30
     Davidson diagonalization with overlap
     ethr =  7.38E-11,  avg # of iterations =  3.0

     total cpu time spent up to now is      821.5 secs

     total energy              =    -511.47134841 Ry
     Harris-Foulkes estimate   =    -511.47134842 Ry
     estimated scf accuracy    <       0.00000010 Ry

     iteration # 18     ecut=    42.00 Ry     beta= 0.30
     Davidson diagonalization with overlap
     ethr =  3.97E-11,  avg # of iterations =  2.9

     total cpu time spent up to now is      865.5 secs

     total energy              =    -511.47134843 Ry
     Harris-Foulkes estimate   =    -511.47134843 Ry
     estimated scf accuracy    <       0.00000002 Ry

     iteration # 19     ecut=    42.00 Ry     beta= 0.30
     Davidson diagonalization with overlap
     ethr =  6.63E-12,  avg # of iterations =  3.0

     total cpu time spent up to now is      917.5 secs

     total energy              =    -511.47134843 Ry
     Harris-Foulkes estimate   =    -511.47134843 Ry
     estimated scf accuracy    <       0.00000002 Ry

     iteration # 20     ecut=    42.00 Ry     beta= 0.30
     Davidson diagonalization with overlap
     ethr =  6.10E-12,  avg # of iterations =  3.0

     total cpu time spent up to now is      965.8 secs

     End of self-consistent calculation

          k = 0.0000 0.0000 0.0000 ( 40339 PWs)   bands (ev):

    -6.3914  -5.5597  -5.4203  -5.3093  -5.0698  -4.9182  -4.7316  -4.5087
    -4.4476  -4.2507  -4.1735  -4.1095  -4.0312  -3.9512  -3.7828  -3.7367
    -3.7188  -3.5751  -3.2902  -3.0841  -3.0406  -2.9409  -2.8224  -2.7489
    -2.7383  -2.5149  -2.3031  -2.1276  -1.9445  -1.7868  -1.6400  -1.6115
    -1.4695  -1.3924  -1.3327  -1.3188  -1.1243  -1.0916  -0.9296  -0.8392
    -0.7785  -0.7155  -0.6758  -0.6286  -0.4316  -0.3546  -0.1700  -0.1205
     0.0105   0.0976   0.2143   0.3157   0.3682   0.5274   0.6490   0.8253
     0.8840   0.9931   1.0401   1.1717   1.2109   1.2934   1.3475   1.4619
     1.5586   1.6546   1.8166   1.8516   1.9230   1.9864   2.1632   2.2139
     2.2642   2.3436   2.4532   2.4903   2.5475   2.6075   2.6901   2.8239
     2.9035   2.9925   3.0512   3.1578   3.1710   3.3092   3.4204   3.4670
     3.5579   3.5830   3.6193   3.6756   3.7492   3.8035   3.8895   3.9514
     3.9679   4.0274   4.0784   4.1582   4.1690   4.2002   4.2922   4.3083
     4.3254   4.3840   4.3980   4.4568   4.4996   4.5873   4.6340   4.7185
     4.8116   4.8507   4.8976   4.9476   4.9971   5.0204   5.0861   5.1219
     5.1376   5.2561   5.4138   5.4825   5.6327   5.7571   5.8865   5.9854
     6.0428   6.1131   6.1750   6.4018   6.4494   6.5594   6.5843   6.6991
     6.7347   6.9259   6.9772   7.0997   7.1611   7.2940   7.3609   7.4665
     7.5234   7.6370   7.6789   7.7473   7.8389   7.8686   7.8791   7.9154
     8.0111   8.0363   8.1645   8.2138   8.2342   8.3170

     occupation numbers 
     1.0000   1.0000   1.0000   1.0000   1.0000   1.0000   1.0000   1.0000
     1.0000   1.0000   1.0000   1.0000   1.0000   1.0000   1.0000   1.0000
     1.0000   1.0000   1.0000   1.0000   1.0000   1.0000   1.0000   1.0000
     1.0000   1.0000   1.0000   1.0000   1.0000   1.0000   1.0000   1.0000
     1.0000   1.0000   1.0000   1.0000   1.0000   1.0000   1.0000   1.0000
     1.0000   1.0000   1.0000   1.0000   1.0000   1.0000   1.0000   1.0000
     1.0000   1.0000   1.0000   1.0000   1.0000   1.0000   1.0000   1.0000
     1.0000   1.0000   1.0000   1.0000   1.0000   1.0000   1.0000   1.0000
     1.0000   1.0000   1.0000   1.0000   1.0000   1.0000   1.0000   1.0000
     1.0000   1.0000   1.0000   1.0000   1.0000   1.0000   1.0000   1.0000
     1.0000   1.0000   1.0000   1.0000   1.0000   1.0000   1.0000   1.0000
     1.0000   1.0000   1.0000   1.0000   1.0000   1.0000   1.0000   1.0001
     1.0001   1.0001   1.0001   1.0003   1.0003   1.0004   1.0007   1.0008
     1.0009   1.0014   1.0015   1.0022   1.0028   1.0047   1.0061   1.0095
     1.0148   1.0176   1.0215   1.0262   1.0315   1.0342   1.0424   1.0471
     1.0493   1.0655   1.0815   1.0833   1.0677   1.0270   0.9528   0.8745
     0.8217   0.7511   0.6850   0.4375   0.3891   0.2872   0.2664   0.1827
     0.1608   0.0744   0.0590   0.0325   0.0235   0.0111   0.0074   0.0037
     0.0025   0.0011   0.0008   0.0005   0.0002   0.0002   0.0002   0.0001
     0.0001   0.0000   0.0000   0.0000   0.0000   0.0000

          k = 0.0000 0.0000 0.3333 ( 40358 PWs)   bands (ev):

    -6.3538  -5.6477  -5.3822  -5.3385  -5.1315  -4.8307  -4.6688  -4.6115
    -4.5375  -4.3290  -4.2461  -4.1495  -4.0476  -3.8326  -3.6889  -3.5788
    -3.5415  -3.4241  -3.2639  -3.1930  -3.0831  -2.9976  -2.8161  -2.6872
    -2.4503  -2.3781  -2.2195  -2.1254  -2.0497  -1.9730  -1.8790  -1.7566
    -1.6278  -1.5174  -1.4840  -1.3744  -1.2862  -1.2174  -1.0795  -1.0577
    -0.8786  -0.7028  -0.5688  -0.4670  -0.3925  -0.2260  -0.1569  -0.0069
     0.0372   0.1456   0.2406   0.4428   0.4883   0.7133   0.7659   0.8181
     0.9601   1.0502   1.1202   1.1724   1.2831   1.4155   1.5099   1.5640
     1.6157   1.7428   1.7928   1.8562   1.9424   2.1012   2.1243   2.2430
     2.3249   2.3771   2.5092   2.5378   2.5985   2.7043   2.7395   2.8570
     2.8815   2.9626   3.0384   3.0913   3.1290   3.2044   3.2390   3.3358
     3.4013   3.4277   3.4886   3.5326   3.5910   3.6638   3.6931   3.7711
     3.8280   3.8697   3.8973   3.9943   4.0722   4.1005   4.1962   4.2616
     4.3314   4.4005   4.4444   4.5185   4.5582   4.6000   4.7001   4.7313
     4.8001   4.8421   4.8999   4.9636   4.9763   5.1244   5.1500   5.1853
     5.2353   5.3271   5.3531   5.6453   5.6814   5.8326   5.9201   5.9836
     6.1054   6.1768   6.2592   6.3478   6.4962   6.5618   6.6845   6.7498
     6.8506   6.9366   7.0782   7.1995   7.2538   7.3519   7.4089   7.4415
     7.5608   7.6214   7.6455   7.7045   7.7880   7.8351   7.9308   8.0084
     8.0442   8.0884   8.1710   8.2234   8.2372   8.3026

     occupation numbers 
     1.0000   1.0000   1.0000   1.0000   1.0000   1.0000   1.0000   1.0000
     1.0000   1.0000   1.0000   1.0000   1.0000   1.0000   1.0000   1.0000
     1.0000   1.0000   1.0000   1.0000   1.0000   1.0000   1.0000   1.0000
     1.0000   1.0000   1.0000   1.0000   1.0000   1.0000   1.0000   1.0000
     1.0000   1.0000   1.0000   1.0000   1.0000   1.0000   1.0000   1.0000
     1.0000   1.0000   1.0000   1.0000   1.0000   1.0000   1.0000   1.0000
     1.0000   1.0000   1.0000   1.0000   1.0000   1.0000   1.0000   1.0000
     1.0000   1.0000   1.0000   1.0000   1.0000   1.0000   1.0000   1.0000
     1.0000   1.0000   1.0000   1.0000   1.0000   1.0000   1.0000   1.0000
     1.0000   1.0000   1.0000   1.0000   1.0000   1.0000   1.0000   1.0000
     1.0000   1.0000   1.0000   1.0000   1.0000   1.0000   1.0000   1.0000
     1.0000   1.0000   1.0000   1.0000   1.0000   1.0000   1.0000   1.0000
     1.0000   1.0000   1.0000   1.0001   1.0001   1.0002   1.0004   1.0006
     1.0010   1.0015   1.0020   1.0032   1.0040   1.0051   1.0087   1.0101
     1.0141   1.0170   1.0217   1.0279   1.0292   1.0475   1.0510   1.0559
     1.0627   1.0741   1.0768   1.0649   1.0551   0.9877   0.9282   0.8761
     0.7590   0.6830   0.5922   0.4949   0.3438   0.2851   0.1922   0.1521
     0.1026   0.0709   0.0362   0.0191   0.0140   0.0078   0.0055   0.0044
     0.0020   0.0013   0.0011   0.0007   0.0004   0.0002   0.0001   0.0001
     0.0000   0.0000   0.0000   0.0000   0.0000   0.0000

          k = 0.0000 0.3333 0.3333 ( 40312 PWs)   bands (ev):

    -6.2925  -5.7422  -5.4966  -5.2845  -5.0634  -4.9654  -4.7013  -4.5964
    -4.4361  -4.3020  -4.2889  -4.1007  -4.0021  -3.8358  -3.7118  -3.6424
    -3.3505  -3.3052  -3.1892  -3.1292  -3.0046  -2.9104  -2.8284  -2.6900
    -2.5059  -2.4029  -2.2865  -2.2338  -2.1346  -2.0404  -1.9592  -1.8582
    -1.7832  -1.6399  -1.5134  -1.4896  -1.3831  -1.1667  -1.0666  -0.9965
    -0.9438  -0.7277  -0.6399  -0.4157  -0.2364  -0.1881  -0.0986   0.0081
     0.1201   0.2486   0.2953   0.4204   0.5006   0.7286   0.7687   0.8749
     0.9489   0.9791   1.1487   1.2594   1.3275   1.4731   1.5122   1.6039
     1.6874   1.7901   1.8884   1.9335   2.0678   2.1301   2.2386   2.3122
     2.3837   2.3973   2.4962   2.5867   2.6061   2.6536   2.7349   2.8167
     2.8565   2.9034   2.9339   3.0373   3.1117   3.1811   3.2010   3.3367
     3.3684   3.4313   3.4724   3.5085   3.5631   3.6437   3.7130   3.7807
     3.8224   3.8981   3.9428   4.0050   4.0736   4.0967   4.1651   4.2355
     4.2536   4.3122   4.3646   4.4395   4.4920   4.5398   4.6029   4.6626
     4.7458   4.8055   4.8343   4.9229   4.9814   4.9956   5.1046   5.1172
     5.2061   5.3204   5.4005   5.5128   5.6082   5.6491   5.8301   5.9301
     6.1032   6.1831   6.2397   6.4637   6.4952   6.5881   6.6996   6.7927
     6.8784   7.0479   7.0720   7.1578   7.2483   7.3195   7.3915   7.5016
     7.6285   7.6701   7.7366   7.7558   7.8919   7.9433   7.9643   8.0265
     8.1207   8.1343   8.1946   8.2757   8.3429   8.3557

     occupation numbers 
     1.0000   1.0000   1.0000   1.0000   1.0000   1.0000   1.0000   1.0000
     1.0000   1.0000   1.0000   1.0000   1.0000   1.0000   1.0000   1.0000
     1.0000   1.0000   1.0000   1.0000   1.0000   1.0000   1.0000   1.0000
     1.0000   1.0000   1.0000   1.0000   1.0000   1.0000   1.0000   1.0000
     1.0000   1.0000   1.0000   1.0000   1.0000   1.0000   1.0000   1.0000
     1.0000   1.0000   1.0000   1.0000   1.0000   1.0000   1.0000   1.0000
     1.0000   1.0000   1.0000   1.0000   1.0000   1.0000   1.0000   1.0000
     1.0000   1.0000   1.0000   1.0000   1.0000   1.0000   1.0000   1.0000
     1.0000   1.0000   1.0000   1.0000   1.0000   1.0000   1.0000   1.0000
     1.0000   1.0000   1.0000   1.0000   1.0000   1.0000   1.0000   1.0000
     1.0000   1.0000   1.0000   1.0000   1.0000   1.0000   1.0000   1.0000
     1.0000   1.0000   1.0000   1.0000   1.0000   1.0000   1.0000   1.0000
     1.0000   1.0000   1.0000   1.0001   1.0001   1.0002   1.0003   1.0005
     1.0006   1.0008   1.0012   1.0020   1.0027   1.0036   1.0052   1.0071
     1.0109   1.0144   1.0164   1.0238   1.0298   1.0313   1.0448   1.0465
     1.0587   1.0734   1.0807   1.0826   1.0725   1.0639   0.9892   0.9205
     0.7613   0.6762   0.6138   0.3749   0.3448   0.2633   0.1824   0.1293
     0.0914   0.0421   0.0374   0.0239   0.0145   0.0095   0.0061   0.0030
     0.0012   0.0009   0.0005   0.0005   0.0002   0.0001   0.0001   0.0000
     0.0000   0.0000   0.0000   0.0000   0.0000   0.0000

          k = 0.3333 0.3333 0.3333 ( 40314 PWs)   bands (ev):

    -6.2442  -5.6923  -5.5490  -5.3817  -5.1451  -5.0280  -4.8992  -4.6255
    -4.4119  -4.1562  -3.9898  -3.9513  -3.8214  -3.7426  -3.6866  -3.5915
    -3.4618  -3.3291  -3.2071  -3.1037  -3.0590  -2.9321  -2.7668  -2.7020
    -2.6289  -2.5592  -2.4209  -2.3385  -2.1906  -2.0588  -2.0274  -1.9290
    -1.7474  -1.6926  -1.6313  -1.5203  -1.2723  -1.1794  -1.0980  -0.9324
    -0.7838  -0.7241  -0.5916  -0.4418  -0.3175  -0.2255  -0.1017  -0.0226
     0.1893   0.3234   0.3987   0.4834   0.5497   0.6709   0.7893   0.8363
     0.9671   1.1332   1.2175   1.2884   1.4171   1.4495   1.5386   1.6173
     1.7006   1.8241   1.9115   2.0030   2.0526   2.1181   2.2171   2.2965
     2.3602   2.4529   2.5255   2.5611   2.6467   2.6707   2.7616   2.8390
     2.8764   2.9279   2.9816   3.0413   3.1141   3.1785   3.2382   3.3386
     3.3720   3.4293   3.4830   3.4939   3.5304   3.6185   3.6695   3.7479
     3.8164   3.8257   3.8723   3.9217   3.9908   4.0247   4.0790   4.1356
     4.2180   4.2486   4.3198   4.3960   4.4556   4.5228   4.5821   4.6498
     4.6934   4.7439   4.7836   4.7959   4.9117   4.9953   5.0753   5.1433
     5.1905   5.2877   5.3816   5.5830   5.6319   5.7706   5.8353   5.9925
     6.1239   6.1917   6.3250   6.3790   6.4711   6.6321   6.7547   6.7995
     6.9029   6.9189   7.0512   7.1378   7.2272   7.2900   7.3907   7.4770
     7.5834   7.6310   7.6793   7.7724   7.8186   7.8751   7.9480   8.0282
     8.1013   8.1438   8.2368   8.2888   8.4073   8.4401

     occupation numbers 
     1.0000   1.0000   1.0000   1.0000   1.0000   1.0000   1.0000   1.0000
     1.0000   1.0000   1.0000   1.0000   1.0000   1.0000   1.0000   1.0000
     1.0000   1.0000   1.0000   1.0000   1.0000   1.0000   1.0000   1.0000
     1.0000   1.0000   1.0000   1.0000   1.0000   1.0000   1.0000   1.0000
     1.0000   1.0000   1.0000   1.0000   1.0000   1.0000   1.0000   1.0000
     1.0000   1.0000   1.0000   1.0000   1.0000   1.0000   1.0000   1.0000
     1.0000   1.0000   1.0000   1.0000   1.0000   1.0000   1.0000   1.0000
     1.0000   1.0000   1.0000   1.0000   1.0000   1.0000   1.0000   1.0000
     1.0000   1.0000   1.0000   1.0000   1.0000   1.0000   1.0000   1.0000
     1.0000   1.0000   1.0000   1.0000   1.0000   1.0000   1.0000   1.0000
     1.0000   1.0000   1.0000   1.0000   1.0000   1.0000   1.0000   1.0000
     1.0000   1.0000   1.0000   1.0000   1.0000   1.0000   1.0000   1.0000
     1.0000   1.0000   1.0000   1.0000   1.0001   1.0001   1.0001   1.0002
     1.0004   1.0005   1.0009   1.0015   1.0022   1.0033   1.0046   1.0067
     1.0084   1.0108   1.0130   1.0138   1.0228   1.0313   1.0410   1.0501
     1.0566   1.0695   1.0793   1.0764   1.0679   1.0208   0.9861   0.8682
     0.7397   0.6668   0.5196   0.4614   0.3677   0.2291   0.1494   0.1259
     0.0823   0.0767   0.0414   0.0266   0.0163   0.0114   0.0061   0.0035
     0.0017   0.0012   0.0008   0.0004   0.0003   0.0002   0.0001   0.0000
     0.0000   0.0000   0.0000   0.0000   0.0000   0.0000

          k = 0.3333 0.0000 0.0000 ( 40358 PWs)   bands (ev):

    -6.3272  -5.7976  -5.3697  -5.1937  -5.0147  -4.8945  -4.7638  -4.6472
    -4.5290  -4.3792  -4.1762  -4.0906  -3.9772  -3.8986  -3.7280  -3.5940
    -3.4750  -3.4200  -3.2769  -3.2022  -3.1042  -2.9868  -2.8701  -2.7230
    -2.4861  -2.3269  -2.2618  -2.1961  -2.0245  -1.9136  -1.8705  -1.7322
    -1.6685  -1.5665  -1.4757  -1.4121  -1.3123  -1.1632  -1.0512  -0.9386
    -0.7859  -0.6297  -0.6102  -0.4574  -0.3399  -0.2628  -0.0867  -0.0138
     0.0483   0.1817   0.2390   0.4396   0.4784   0.5655   0.6227   0.7651
     0.8493   0.9954   1.0544   1.0917   1.3165   1.4900   1.5864   1.6219
     1.7232   1.7704   1.8077   1.9187   1.9661   2.0088   2.1934   2.2606
     2.3595   2.4187   2.4757   2.5337   2.5875   2.6648   2.7018   2.7849
     2.8582   2.8993   2.9802   3.0209   3.1253   3.1797   3.2427   3.3306
     3.3612   3.4872   3.5537   3.5844   3.6444   3.6929   3.7681   3.8355
     3.8545   3.8840   3.9832   4.0244   4.0444   4.1782   4.2119   4.2421
     4.3580   4.4058   4.4183   4.4934   4.5087   4.5992   4.6471   4.7083
     4.7671   4.8538   4.9187   4.9518   4.9977   5.0470   5.0878   5.1291
     5.2185   5.3018   5.4249   5.5244   5.7169   5.7864   5.8849   6.0141
     6.1158   6.1477   6.3195   6.4054   6.5051   6.5784   6.6567   6.7443
     6.8863   6.9797   7.1024   7.2299   7.2524   7.3095   7.4474   7.4958
     7.5231   7.6325   7.6738   7.7264   7.7767   7.8328   7.9155   8.0029
     8.0544   8.1069   8.1562   8.2225   8.2926   8.3190

     occupation numbers 
     1.0000   1.0000   1.0000   1.0000   1.0000   1.0000   1.0000   1.0000
     1.0000   1.0000   1.0000   1.0000   1.0000   1.0000   1.0000   1.0000
     1.0000   1.0000   1.0000   1.0000   1.0000   1.0000   1.0000   1.0000
     1.0000   1.0000   1.0000   1.0000   1.0000   1.0000   1.0000   1.0000
     1.0000   1.0000   1.0000   1.0000   1.0000   1.0000   1.0000   1.0000
     1.0000   1.0000   1.0000   1.0000   1.0000   1.0000   1.0000   1.0000
     1.0000   1.0000   1.0000   1.0000   1.0000   1.0000   1.0000   1.0000
     1.0000   1.0000   1.0000   1.0000   1.0000   1.0000   1.0000   1.0000
     1.0000   1.0000   1.0000   1.0000   1.0000   1.0000   1.0000   1.0000
     1.0000   1.0000   1.0000   1.0000   1.0000   1.0000   1.0000   1.0000
     1.0000   1.0000   1.0000   1.0000   1.0000   1.0000   1.0000   1.0000
     1.0000   1.0000   1.0000   1.0000   1.0000   1.0000   1.0000   1.0000
     1.0000   1.0000   1.0001   1.0001   1.0001   1.0003   1.0004   1.0005
     1.0011   1.0016   1.0017   1.0027   1.0030   1.0051   1.0066   1.0090
     1.0120   1.0179   1.0234   1.0266   1.0316   1.0374   1.0426   1.0481
     1.0604   1.0712   1.0821   1.0820   1.0433   1.0131   0.9539   0.8487
     0.7482   0.7145   0.5257   0.4337   0.3355   0.2712   0.2112   0.1553
     0.0883   0.0583   0.0320   0.0161   0.0141   0.0101   0.0042   0.0031
     0.0026   0.0012   0.0009   0.0006   0.0004   0.0002   0.0001   0.0001
     0.0000   0.0000   0.0000   0.0000   0.0000   0.0000

          k = 0.0000 0.3333 0.0000 ( 40358 PWs)   bands (ev):

    -6.3233  -5.8061  -5.3663  -5.2436  -5.0001  -4.8448  -4.7405  -4.6383
    -4.5203  -4.3115  -4.2449  -4.1383  -4.0241  -3.7942  -3.7440  -3.6639
    -3.5440  -3.3935  -3.3031  -3.2232  -3.1069  -2.9961  -2.8289  -2.6175
    -2.4570  -2.3991  -2.2711  -2.1759  -2.0797  -1.9239  -1.7803  -1.6891
    -1.6339  -1.5736  -1.4004  -1.3006  -1.2612  -1.1614  -1.0933  -0.9854
    -0.9095  -0.6869  -0.5722  -0.4415  -0.3544  -0.2901  -0.2188  -0.0934
     0.0168   0.0959   0.2561   0.3838   0.4613   0.5006   0.6981   0.8117
     0.8946   0.9566   1.0597   1.2141   1.3806   1.4579   1.4814   1.5395
     1.6771   1.8487   1.8879   2.0131   2.1085   2.1567   2.1736   2.2763
     2.3235   2.4137   2.4763   2.5206   2.5998   2.6940   2.7784   2.8177
     2.8359   2.9107   3.0123   3.0675   3.1376   3.2215   3.2668   3.3306
     3.3703   3.4375   3.4709   3.5509   3.6084   3.6341   3.7006   3.7726
     3.8221   3.8946   3.9305   4.0124   4.1138   4.1736   4.2449   4.2740
     4.2968   4.3776   4.4434   4.4661   4.5401   4.5827   4.6809   4.7083
     4.7392   4.8597   4.8994   4.9873   5.0347   5.0659   5.0981   5.1154
     5.1907   5.2859   5.3845   5.4707   5.6073   5.7760   5.8539   6.0052
     6.0295   6.1898   6.2508   6.3670   6.5402   6.6235   6.7310   6.8003
     6.8906   6.9549   6.9923   7.0797   7.2205   7.2942   7.4248   7.4930
     7.5574   7.6313   7.6823   7.7156   7.8147   7.8604   7.9455   8.0186
     8.0710   8.1129   8.1756   8.2047   8.2755   8.3232

     occupation numbers 
     1.0000   1.0000   1.0000   1.0000   1.0000   1.0000   1.0000   1.0000
     1.0000   1.0000   1.0000   1.0000   1.0000   1.0000   1.0000   1.0000
     1.0000   1.0000   1.0000   1.0000   1.0000   1.0000   1.0000   1.0000
     1.0000   1.0000   1.0000   1.0000   1.0000   1.0000   1.0000   1.0000
     1.0000   1.0000   1.0000   1.0000   1.0000   1.0000   1.0000   1.0000
     1.0000   1.0000   1.0000   1.0000   1.0000   1.0000   1.0000   1.0000
     1.0000   1.0000   1.0000   1.0000   1.0000   1.0000   1.0000   1.0000
     1.0000   1.0000   1.0000   1.0000   1.0000   1.0000   1.0000   1.0000
     1.0000   1.0000   1.0000   1.0000   1.0000   1.0000   1.0000   1.0000
     1.0000   1.0000   1.0000   1.0000   1.0000   1.0000   1.0000   1.0000
     1.0000   1.0000   1.0000   1.0000   1.0000   1.0000   1.0000   1.0000
     1.0000   1.0000   1.0000   1.0000   1.0000   1.0000   1.0000   1.0000
     1.0000   1.0000   1.0000   1.0001   1.0002   1.0003   1.0005   1.0006
     1.0008   1.0013   1.0020   1.0023   1.0036   1.0046   1.0078   1.0090
     1.0105   1.0183   1.0216   1.0304   1.0359   1.0398   1.0440   1.0463
     1.0566   1.0693   1.0795   1.0833   1.0726   1.0182   0.9746   0.8569
     0.8344   0.6689   0.6015   0.4742   0.3038   0.2355   0.1630   0.1255
     0.0867   0.0654   0.0550   0.0360   0.0170   0.0111   0.0049   0.0031
     0.0020   0.0012   0.0008   0.0006   0.0003   0.0002   0.0001   0.0000
     0.0000   0.0000   0.0000   0.0000   0.0000   0.0000

          k = 0.0000-0.3333 0.3333 ( 40312 PWs)   bands (ev):

    -6.2908  -5.7665  -5.4577  -5.2455  -5.1375  -4.9677  -4.6507  -4.5982
    -4.4598  -4.3979  -4.1985  -4.0932  -3.9768  -3.8620  -3.7676  -3.5799
    -3.3891  -3.2830  -3.2014  -3.1208  -2.9898  -2.8811  -2.7567  -2.7306
    -2.5437  -2.4908  -2.3475  -2.1569  -2.1282  -2.0065  -1.9259  -1.8375
    -1.7567  -1.6693  -1.5603  -1.4971  -1.3647  -1.2522  -1.0642  -1.0035
    -0.8821  -0.7652  -0.5334  -0.4150  -0.3623  -0.1919  -0.0471   0.0814
     0.1136   0.1859   0.3703   0.4296   0.5413   0.6447   0.7726   0.8508
     0.8806   1.0679   1.1641   1.2444   1.3370   1.4446   1.5226   1.5660
     1.6735   1.7846   1.9138   1.9739   2.0837   2.1446   2.1948   2.2667
     2.3807   2.4262   2.4909   2.5417   2.6004   2.6664   2.7071   2.7804
     2.8845   2.9515   2.9871   3.0470   3.1028   3.1673   3.2541   3.3023
     3.3917   3.4188   3.4771   3.5592   3.5914   3.6396   3.7066   3.7311
     3.7828   3.8614   3.9314   3.9750   4.0217   4.0950   4.1801   4.2494
     4.2695   4.3183   4.3580   4.3951   4.4984   4.5451   4.6206   4.6697
     4.7672   4.8170   4.9268   4.9439   4.9858   5.0306   5.0750   5.1519
     5.2174   5.3201   5.3592   5.4814   5.5542   5.7322   5.8685   5.9598
     6.0355   6.1313   6.2936   6.3532   6.5203   6.6173   6.6756   6.8016
     6.9280   6.9915   7.0165   7.1173   7.2494   7.3750   7.4377   7.5211
     7.6499   7.6820   7.7067   7.7653   7.7834   7.9252   7.9608   8.0560
     8.0771   8.1209   8.2234   8.2622   8.3555   8.4002

     occupation numbers 
     1.0000   1.0000   1.0000   1.0000   1.0000   1.0000   1.0000   1.0000
     1.0000   1.0000   1.0000   1.0000   1.0000   1.0000   1.0000   1.0000
     1.0000   1.0000   1.0000   1.0000   1.0000   1.0000   1.0000   1.0000
     1.0000   1.0000   1.0000   1.0000   1.0000   1.0000   1.0000   1.0000
     1.0000   1.0000   1.0000   1.0000   1.0000   1.0000   1.0000   1.0000
     1.0000   1.0000   1.0000   1.0000   1.0000   1.0000   1.0000   1.0000
     1.0000   1.0000   1.0000   1.0000   1.0000   1.0000   1.0000   1.0000
     1.0000   1.0000   1.0000   1.0000   1.0000   1.0000   1.0000   1.0000
     1.0000   1.0000   1.0000   1.0000   1.0000   1.0000   1.0000   1.0000
     1.0000   1.0000   1.0000   1.0000   1.0000   1.0000   1.0000   1.0000
     1.0000   1.0000   1.0000   1.0000   1.0000   1.0000   1.0000   1.0000
     1.0000   1.0000   1.0000   1.0000   1.0000   1.0000   1.0000   1.0000
     1.0000   1.0000   1.0000   1.0001   1.0001   1.0002   1.0003   1.0005
     1.0006   1.0009   1.0011   1.0015   1.0028   1.0037   1.0057   1.0074
     1.0120   1.0152   1.0242   1.0258   1.0303   1.0354   1.0410   1.0513
     1.0603   1.0733   1.0773   1.0833   1.0798   1.0375   0.9651   0.8964
     0.8286   0.7319   0.5541   0.4890   0.3216   0.2403   0.1982   0.1249
     0.0737   0.0552   0.0490   0.0296   0.0144   0.0068   0.0045   0.0026
     0.0010   0.0008   0.0007   0.0004   0.0004   0.0001   0.0001   0.0000
     0.0000   0.0000   0.0000   0.0000   0.0000   0.0000

          k = 0.3333 0.0000-0.3333 ( 40312 PWs)   bands (ev):

    -6.2989  -5.7053  -5.4959  -5.3287  -5.0839  -4.9381  -4.6802  -4.5719
    -4.5244  -4.3653  -4.1899  -4.1177  -4.0110  -3.8389  -3.6722  -3.5800
    -3.3669  -3.3090  -3.1768  -3.0721  -2.9691  -2.8923  -2.8437  -2.7006
    -2.5777  -2.4981  -2.3147  -2.2164  -2.1897  -2.0820  -1.9644  -1.8004
    -1.7268  -1.6544  -1.5864  -1.5319  -1.3977  -1.2700  -1.1061  -0.8468
    -0.7592  -0.6465  -0.4931  -0.4617  -0.3601  -0.2886  -0.1347   0.0007
     0.1955   0.2847   0.3788   0.4574   0.5894   0.6488   0.7530   0.8637
     0.9629   1.0720   1.1278   1.2047   1.3879   1.4075   1.4671   1.6109
     1.6881   1.7903   1.9017   1.9485   1.9971   2.0937   2.1328   2.2632
     2.3404   2.3713   2.4617   2.5266   2.5792   2.6839   2.7432   2.8185
     2.9035   2.9422   2.9737   3.0512   3.1279   3.1872   3.2668   3.2720
     3.3293   3.4108   3.4577   3.5360   3.5949   3.6215   3.6979   3.7614
     3.7847   3.8714   3.9343   3.9811   4.0373   4.1213   4.1801   4.2017
     4.2218   4.2718   4.3835   4.4620   4.4965   4.5361   4.6434   4.6733
     4.7628   4.7841   4.8803   4.9084   4.9611   4.9828   5.0860   5.1558
     5.2359   5.3719   5.4311   5.5563   5.6794   5.7833   5.9985   6.0909
     6.1396   6.2049   6.3141   6.3646   6.5151   6.5877   6.7602   6.8118
     6.8861   6.9037   7.0173   7.1597   7.2827   7.3886   7.4201   7.4559
     7.5648   7.6166   7.6898   7.7422   7.8119   7.8940   7.9665   8.0074
     8.0974   8.1222   8.1587   8.1979   8.2828   8.3959

     occupation numbers 
     1.0000   1.0000   1.0000   1.0000   1.0000   1.0000   1.0000   1.0000
     1.0000   1.0000   1.0000   1.0000   1.0000   1.0000   1.0000   1.0000
     1.0000   1.0000   1.0000   1.0000   1.0000   1.0000   1.0000   1.0000
     1.0000   1.0000   1.0000   1.0000   1.0000   1.0000   1.0000   1.0000
     1.0000   1.0000   1.0000   1.0000   1.0000   1.0000   1.0000   1.0000
     1.0000   1.0000   1.0000   1.0000   1.0000   1.0000   1.0000   1.0000
     1.0000   1.0000   1.0000   1.0000   1.0000   1.0000   1.0000   1.0000
     1.0000   1.0000   1.0000   1.0000   1.0000   1.0000   1.0000   1.0000
     1.0000   1.0000   1.0000   1.0000   1.0000   1.0000   1.0000   1.0000
     1.0000   1.0000   1.0000   1.0000   1.0000   1.0000   1.0000   1.0000
     1.0000   1.0000   1.0000   1.0000   1.0000   1.0000   1.0000   1.0000
     1.0000   1.0000   1.0000   1.0000   1.0000   1.0000   1.0000   1.0000
     1.0000   1.0000   1.0000   1.0001   1.0001   1.0002   1.0003   1.0004
     1.0004   1.0006   1.0014   1.0022   1.0028   1.0035   1.0064   1.0075
     1.0118   1.0130   1.0200   1.0225   1.0276   1.0299   1.0424   1.0518
     1.0628   1.0785   1.0823   1.0795   1.0558   1.0146   0.8629   0.7739
     0.7231   0.6522   0.5316   0.4768   0.3263   0.2636   0.1463   0.1199
     0.0884   0.0820   0.0488   0.0237   0.0119   0.0062   0.0051   0.0040
     0.0019   0.0013   0.0008   0.0005   0.0003   0.0001   0.0001   0.0001
     0.0000   0.0000   0.0000   0.0000   0.0000   0.0000

          k =-0.3333 0.0000-0.3333 ( 40312 PWs)   bands (ev):

    -6.2964  -5.7442  -5.4213  -5.3233  -5.1402  -4.9255  -4.7078  -4.6316
    -4.4096  -4.3340  -4.2486  -4.1094  -3.9822  -3.8365  -3.6850  -3.5982
    -3.4887  -3.3171  -3.1703  -3.0125  -2.9492  -2.8637  -2.7749  -2.6610
    -2.5405  -2.5053  -2.4106  -2.2903  -2.1720  -2.0342  -1.9233  -1.8158
    -1.8011  -1.6703  -1.5996  -1.4796  -1.4131  -1.2017  -1.1175  -0.9275
    -0.8212  -0.6974  -0.5357  -0.3898  -0.2811  -0.2166  -0.1121   0.0316
     0.1400   0.3009   0.3489   0.4533   0.5252   0.6617   0.7708   0.9089
     0.9538   1.0067   1.1817   1.2931   1.3719   1.4352   1.5014   1.6176
     1.6866   1.7871   1.8125   1.8945   2.0059   2.1153   2.1684   2.2113
     2.3082   2.3683   2.4127   2.5276   2.5941   2.6470   2.7004   2.7855
     2.9098   2.9840   3.0053   3.0956   3.1441   3.1988   3.2547   3.3027
     3.3700   3.4239   3.4536   3.5467   3.5860   3.6485   3.6963   3.7552
     3.7969   3.8614   3.9370   3.9666   4.0184   4.1020   4.1237   4.1902
     4.2491   4.2634   4.3674   4.4327   4.4654   4.5681   4.6330   4.6576
     4.7159   4.8097   4.8459   4.9407   4.9872   5.0436   5.0786   5.1489
     5.2573   5.3140   5.4689   5.5968   5.7727   5.8520   5.9183   6.0672
     6.1106   6.2291   6.3395   6.4745   6.5372   6.5809   6.7273   6.7710
     6.8421   6.8930   7.0747   7.1726   7.2204   7.2480   7.3846   7.5005
     7.5410   7.6209   7.6983   7.7442   7.8484   7.8780   7.9530   8.0382
     8.0992   8.1338   8.1962   8.2547   8.2875   8.3470

     occupation numbers 
     1.0000   1.0000   1.0000   1.0000   1.0000   1.0000   1.0000   1.0000
     1.0000   1.0000   1.0000   1.0000   1.0000   1.0000   1.0000   1.0000
     1.0000   1.0000   1.0000   1.0000   1.0000   1.0000   1.0000   1.0000
     1.0000   1.0000   1.0000   1.0000   1.0000   1.0000   1.0000   1.0000
     1.0000   1.0000   1.0000   1.0000   1.0000   1.0000   1.0000   1.0000
     1.0000   1.0000   1.0000   1.0000   1.0000   1.0000   1.0000   1.0000
     1.0000   1.0000   1.0000   1.0000   1.0000   1.0000   1.0000   1.0000
     1.0000   1.0000   1.0000   1.0000   1.0000   1.0000   1.0000   1.0000
     1.0000   1.0000   1.0000   1.0000   1.0000   1.0000   1.0000   1.0000
     1.0000   1.0000   1.0000   1.0000   1.0000   1.0000   1.0000   1.0000
     1.0000   1.0000   1.0000   1.0000   1.0000   1.0000   1.0000   1.0000
     1.0000   1.0000   1.0000   1.0000   1.0000   1.0000   1.0000   1.0000
     1.0000   1.0000   1.0000   1.0001   1.0001   1.0002   1.0002   1.0003
     1.0005   1.0006   1.0012   1.0019   1.0023   1.0042   1.0061   1.0069
     1.0094   1.0147   1.0173   1.0255   1.0304   1.0370   1.0414   1.0508
     1.0656   1.0726   1.0833   1.0744   1.0198   0.9758   0.9296   0.7978
     0.7537   0.6255   0.5038   0.3644   0.3065   0.2692   0.1652   0.1405
     0.1062   0.0858   0.0369   0.0221   0.0170   0.0145   0.0064   0.0030
     0.0023   0.0013   0.0007   0.0005   0.0002   0.0002   0.0001   0.0000
     0.0000   0.0000   0.0000   0.0000   0.0000   0.0000

          k = 0.3333-0.3333 0.0000 ( 40312 PWs)   bands (ev):

    -6.2677  -5.7447  -5.6313  -5.3223  -4.9627  -4.7752  -4.6792  -4.5960
    -4.4147  -4.3266  -4.2531  -4.2314  -4.0595  -3.9186  -3.8096  -3.5589
    -3.3525  -3.2630  -3.1739  -3.0736  -2.9795  -2.9020  -2.7702  -2.6847
    -2.6029  -2.4248  -2.3625  -2.2597  -2.1691  -2.0473  -1.9744  -1.9377
    -1.7584  -1.5981  -1.5360  -1.4184  -1.2677  -1.0964  -1.0537  -0.8979
    -0.7990  -0.7270  -0.6138  -0.4369  -0.3067  -0.2513  -0.1504  -0.1020
     0.0252   0.1805   0.2863   0.3958   0.4905   0.6676   0.8035   0.8948
     0.9781   1.0647   1.1716   1.2031   1.2930   1.4592   1.5402   1.6764
     1.7310   1.8514   1.9179   2.0059   2.0497   2.1418   2.1953   2.2605
     2.3127   2.4011   2.5522   2.6247   2.6434   2.6807   2.7312   2.8257
     2.8776   2.9176   2.9559   3.0067   3.0834   3.1742   3.2149   3.2603
     3.2907   3.4073   3.4887   3.5590   3.5708   3.6485   3.7080   3.7717
     3.8201   3.8686   3.9115   4.0202   4.0433   4.1165   4.1737   4.2224
     4.2546   4.2981   4.3277   4.4030   4.4912   4.5332   4.5842   4.6451
     4.6913   4.7469   4.8206   4.8637   4.9210   5.0104   5.1426   5.2006
     5.2443   5.3285   5.3831   5.4818   5.6082   5.6970   5.8771   6.0285
     6.1485   6.2143   6.3184   6.4118   6.5769   6.6824   6.7455   6.8258
     6.9350   7.0663   7.1203   7.1839   7.2613   7.2864   7.3568   7.4755
     7.5127   7.6412   7.7529   7.8185   7.8389   7.9051   7.9707   8.0074
     8.1129   8.2148   8.2503   8.2985   8.3517   8.3852

     occupation numbers 
     1.0000   1.0000   1.0000   1.0000   1.0000   1.0000   1.0000   1.0000
     1.0000   1.0000   1.0000   1.0000   1.0000   1.0000   1.0000   1.0000
     1.0000   1.0000   1.0000   1.0000   1.0000   1.0000   1.0000   1.0000
     1.0000   1.0000   1.0000   1.0000   1.0000   1.0000   1.0000   1.0000
     1.0000   1.0000   1.0000   1.0000   1.0000   1.0000   1.0000   1.0000
     1.0000   1.0000   1.0000   1.0000   1.0000   1.0000   1.0000   1.0000
     1.0000   1.0000   1.0000   1.0000   1.0000   1.0000   1.0000   1.0000
     1.0000   1.0000   1.0000   1.0000   1.0000   1.0000   1.0000   1.0000
     1.0000   1.0000   1.0000   1.0000   1.0000   1.0000   1.0000   1.0000
     1.0000   1.0000   1.0000   1.0000   1.0000   1.0000   1.0000   1.0000
     1.0000   1.0000   1.0000   1.0000   1.0000   1.0000   1.0000   1.0000
     1.0000   1.0000   1.0000   1.0000   1.0000   1.0000   1.0000   1.0000
     1.0000   1.0000   1.0000   1.0001   1.0001   1.0002   1.0003   1.0004
     1.0006   1.0008   1.0009   1.0015   1.0027   1.0035   1.0046   1.0065
     1.0083   1.0109   1.0154   1.0186   1.0236   1.0330   1.0500   1.0580
     1.0639   1.0743   1.0794   1.0833   1.0725   1.0502   0.9593   0.8352
     0.7136   0.6419   0.5269   0.4271   0.2725   0.1936   0.1546   0.1134
     0.0715   0.0385   0.0292   0.0208   0.0134   0.0116   0.0076   0.0035
     0.0027   0.0011   0.0005   0.0003   0.0002   0.0001   0.0001   0.0001
     0.0000   0.0000   0.0000   0.0000   0.0000   0.0000

          k =-0.3333-0.3333 0.0000 ( 40312 PWs)   bands (ev):

    -6.2695  -5.7551  -5.5813  -5.3731  -4.9564  -4.8061  -4.6523  -4.5881
    -4.4813  -4.3373  -4.2134  -4.1600  -3.9995  -3.9475  -3.7288  -3.7018
    -3.3699  -3.2263  -3.1839  -3.0925  -2.9689  -2.8923  -2.8174  -2.7192
    -2.6001  -2.4883  -2.3553  -2.2610  -2.1787  -2.0353  -1.9415  -1.7992
    -1.6698  -1.6152  -1.4991  -1.3342  -1.2786  -1.1834  -1.0637  -0.9382
    -0.9111  -0.7461  -0.6119  -0.5156  -0.3649  -0.3215  -0.1139  -0.0148
     0.0601   0.1615   0.3408   0.4777   0.5475   0.6685   0.7507   0.9011
     0.9529   1.0377   1.1538   1.2955   1.3995   1.4834   1.5539   1.6221
     1.7035   1.8015   1.8422   1.9188   2.0162   2.1434   2.1835   2.3087
     2.4105   2.4224   2.4840   2.5348   2.6117   2.6862   2.7357   2.8123
     2.8659   2.9188   2.9908   3.0168   3.1364   3.1885   3.2146   3.2684
     3.3982   3.4218   3.4894   3.5435   3.6286   3.6544   3.6935   3.7551
     3.7909   3.8419   3.9203   3.9980   4.0644   4.0795   4.1347   4.2089
     4.2328   4.2990   4.3345   4.4261   4.4745   4.5424   4.5836   4.6457
     4.7148   4.8017   4.8570   4.8906   4.9633   5.0200   5.0376   5.1481
     5.2157   5.3452   5.4473   5.5352   5.6828   5.7638   5.8496   5.9555
     6.0968   6.1535   6.2865   6.4278   6.5098   6.5773   6.7638   6.8307
     6.9163   6.9618   7.0490   7.1618   7.2371   7.3795   7.3989   7.4852
     7.5953   7.6700   7.7788   7.8099   7.8739   7.9264   7.9824   8.0775
     8.1050   8.1928   8.2033   8.2794   8.3349   8.3905

     occupation numbers 
     1.0000   1.0000   1.0000   1.0000   1.0000   1.0000   1.0000   1.0000
     1.0000   1.0000   1.0000   1.0000   1.0000   1.0000   1.0000   1.0000
     1.0000   1.0000   1.0000   1.0000   1.0000   1.0000   1.0000   1.0000
     1.0000   1.0000   1.0000   1.0000   1.0000   1.0000   1.0000   1.0000
     1.0000   1.0000   1.0000   1.0000   1.0000   1.0000   1.0000   1.0000
     1.0000   1.0000   1.0000   1.0000   1.0000   1.0000   1.0000   1.0000
     1.0000   1.0000   1.0000   1.0000   1.0000   1.0000   1.0000   1.0000
     1.0000   1.0000   1.0000   1.0000   1.0000   1.0000   1.0000   1.0000
     1.0000   1.0000   1.0000   1.0000   1.0000   1.0000   1.0000   1.0000
     1.0000   1.0000   1.0000   1.0000   1.0000   1.0000   1.0000   1.0000
     1.0000   1.0000   1.0000   1.0000   1.0000   1.0000   1.0000   1.0000
     1.0000   1.0000   1.0000   1.0000   1.0000   1.0000   1.0000   1.0000
     1.0000   1.0000   1.0000   1.0001   1.0001   1.0001   1.0002   1.0004
     1.0005   1.0008   1.0010   1.0018   1.0024   1.0037   1.0046   1.0065
     1.0093   1.0142   1.0181   1.0209   1.0278   1.0341   1.0363   1.0507
     1.0601   1.0760   1.0829   1.0813   1.0547   1.0240   0.9773   0.9000
     0.7679   0.7083   0.5620   0.4108   0.3312   0.2722   0.1444   0.1112
     0.0776   0.0633   0.0419   0.0234   0.0154   0.0066   0.0058   0.0033
     0.0015   0.0009   0.0004   0.0003   0.0002   0.0001   0.0001   0.0000
     0.0000   0.0000   0.0000   0.0000   0.0000   0.0000

          k =-0.3333-0.3333 0.3333 ( 40314 PWs)   bands (ev):

    -6.2450  -5.7012  -5.5239  -5.3211  -5.2779  -5.0040  -4.8732  -4.6219
    -4.3611  -4.1356  -4.0572  -3.9590  -3.9153  -3.7440  -3.6378  -3.5048
    -3.4923  -3.2955  -3.2318  -3.1004  -3.0442  -2.9106  -2.7984  -2.7033
    -2.5611  -2.5330  -2.4893  -2.3651  -2.1959  -2.1629  -2.0325  -1.9119
    -1.8081  -1.6975  -1.5875  -1.4490  -1.2563  -1.1394  -1.0327  -0.8772
    -0.8328  -0.7002  -0.6370  -0.5653  -0.2947  -0.1712  -0.0945   0.0168
     0.0841   0.2763   0.3332   0.5498   0.5900   0.7098   0.8172   0.9470
     0.9717   1.0968   1.1874   1.2825   1.3885   1.4437   1.5340   1.5801
     1.7251   1.8217   1.9037   1.9370   2.0052   2.0516   2.2039   2.2819
     2.3386   2.4242   2.4884   2.6196   2.6662   2.7323   2.8060   2.8512
     2.9272   2.9529   2.9987   3.1046   3.1449   3.2055   3.2507   3.3047
     3.3503   3.4282   3.4495   3.5316   3.5863   3.6059   3.6690   3.6988
     3.7836   3.8317   3.8777   3.9637   4.0021   4.0560   4.1141   4.1827
     4.1974   4.2543   4.3125   4.3615   4.4417   4.5088   4.5417   4.5773
     4.6688   4.6985   4.8002   4.8642   4.9017   4.9856   5.0080   5.0959
     5.2171   5.3236   5.3843   5.4669   5.6374   5.8579   5.9251   5.9677
     6.1118   6.1748   6.2227   6.4138   6.5077   6.5934   6.6405   6.7434
     6.9200   7.0264   7.0900   7.1531   7.2641   7.3295   7.4332   7.4648
     7.5305   7.6160   7.6577   7.7946   7.8336   7.9244   7.9577   8.0523
     8.1123   8.1688   8.2704   8.3021   8.3845   8.4911

     occupation numbers 
     1.0000   1.0000   1.0000   1.0000   1.0000   1.0000   1.0000   1.0000
     1.0000   1.0000   1.0000   1.0000   1.0000   1.0000   1.0000   1.0000
     1.0000   1.0000   1.0000   1.0000   1.0000   1.0000   1.0000   1.0000
     1.0000   1.0000   1.0000   1.0000   1.0000   1.0000   1.0000   1.0000
     1.0000   1.0000   1.0000   1.0000   1.0000   1.0000   1.0000   1.0000
     1.0000   1.0000   1.0000   1.0000   1.0000   1.0000   1.0000   1.0000
     1.0000   1.0000   1.0000   1.0000   1.0000   1.0000   1.0000   1.0000
     1.0000   1.0000   1.0000   1.0000   1.0000   1.0000   1.0000   1.0000
     1.0000   1.0000   1.0000   1.0000   1.0000   1.0000   1.0000   1.0000
     1.0000   1.0000   1.0000   1.0000   1.0000   1.0000   1.0000   1.0000
     1.0000   1.0000   1.0000   1.0000   1.0000   1.0000   1.0000   1.0000
     1.0000   1.0000   1.0000   1.0000   1.0000   1.0000   1.0000   1.0000
     1.0000   1.0000   1.0000   1.0001   1.0001   1.0001   1.0002   1.0003
     1.0004   1.0006   1.0008   1.0012   1.0020   1.0030   1.0036   1.0045
     1.0074   1.0086   1.0141   1.0187   1.0219   1.0302   1.0328   1.0437
     1.0603   1.0737   1.0795   1.0833   1.0667   0.9720   0.9243   0.8898
     0.7524   0.6852   0.6326   0.4251   0.3331   0.2590   0.2229   0.1558
     0.0763   0.0468   0.0341   0.0246   0.0132   0.0090   0.0047   0.0038
     0.0024   0.0013   0.0010   0.0003   0.0002   0.0001   0.0001   0.0000
     0.0000   0.0000   0.0000   0.0000   0.0000   0.0000

          k =-0.3333 0.3333-0.3333 ( 40314 PWs)   bands (ev):

    -6.2413  -5.6937  -5.5895  -5.3136  -5.2356  -4.9089  -4.8717  -4.6495
    -4.4226  -4.2726  -4.0684  -3.9458  -3.7999  -3.7186  -3.6574  -3.5841
    -3.4301  -3.3061  -3.2158  -3.0873  -2.9572  -2.8944  -2.8127  -2.6967
    -2.5906  -2.5129  -2.4294  -2.3438  -2.2888  -2.1898  -2.0559  -1.9538
    -1.8505  -1.6586  -1.5665  -1.3864  -1.3276  -1.3011  -1.0425  -0.9144
    -0.8130  -0.6328  -0.5136  -0.4178  -0.3480  -0.1518  -0.0661   0.0330
     0.1241   0.1703   0.4037   0.4957   0.5932   0.6936   0.7637   0.7982
     0.9468   1.0936   1.2144   1.2572   1.3570   1.4843   1.5604   1.6366
     1.7375   1.8125   1.8819   2.0147   2.0484   2.1500   2.2203   2.3030
     2.4000   2.4453   2.4946   2.5422   2.6355   2.6978   2.7737   2.8336
     2.9169   2.9439   3.0308   3.1200   3.1445   3.2122   3.2366   3.3037
     3.3276   3.3688   3.4098   3.4873   3.5450   3.5978   3.6460   3.6827
     3.7421   3.8048   3.8548   3.9030   3.9559   4.0027   4.1203   4.1655
     4.2344   4.3084   4.3876   4.4497   4.4988   4.5211   4.5373   4.6203
     4.7060   4.7735   4.8090   4.8870   4.9334   4.9939   5.0767   5.0898
     5.2030   5.2957   5.3546   5.5211   5.5604   5.7871   5.8393   5.9682
     6.0255   6.1795   6.3471   6.4562   6.5360   6.5781   6.7821   6.8484
     6.9164   6.9882   7.0697   7.1428   7.2376   7.3203   7.3914   7.4429
     7.5805   7.6573   7.6788   7.7474   7.7690   7.8930   7.9785   8.0293
     8.0775   8.1742   8.1974   8.3058   8.3670   8.4356

     occupation numbers 
     1.0000   1.0000   1.0000   1.0000   1.0000   1.0000   1.0000   1.0000
     1.0000   1.0000   1.0000   1.0000   1.0000   1.0000   1.0000   1.0000
     1.0000   1.0000   1.0000   1.0000   1.0000   1.0000   1.0000   1.0000
     1.0000   1.0000   1.0000   1.0000   1.0000   1.0000   1.0000   1.0000
     1.0000   1.0000   1.0000   1.0000   1.0000   1.0000   1.0000   1.0000
     1.0000   1.0000   1.0000   1.0000   1.0000   1.0000   1.0000   1.0000
     1.0000   1.0000   1.0000   1.0000   1.0000   1.0000   1.0000   1.0000
     1.0000   1.0000   1.0000   1.0000   1.0000   1.0000   1.0000   1.0000
     1.0000   1.0000   1.0000   1.0000   1.0000   1.0000   1.0000   1.0000
     1.0000   1.0000   1.0000   1.0000   1.0000   1.0000   1.0000   1.0000
     1.0000   1.0000   1.0000   1.0000   1.0000   1.0000   1.0000   1.0000
     1.0000   1.0000   1.0000   1.0000   1.0000   1.0000   1.0000   1.0000
     1.0000   1.0000   1.0000   1.0000   1.0001   1.0001   1.0002   1.0003
     1.0005   1.0008   1.0014   1.0021   1.0028   1.0032   1.0035   1.0057
     1.0089   1.0124   1.0146   1.0206   1.0248   1.0312   1.0412   1.0429
     1.0583   1.0705   1.0769   1.0822   1.0791   1.0127   0.9837   0.8893
     0.8381   0.6801   0.4956   0.3824   0.3075   0.2715   0.1347   0.1035
     0.0776   0.0561   0.0378   0.0259   0.0154   0.0095   0.0061   0.0044
     0.0017   0.0010   0.0008   0.0005   0.0004   0.0001   0.0001   0.0000
     0.0000   0.0000   0.0000   0.0000   0.0000   0.0000

          k = 0.3333-0.3333-0.3333 ( 40314 PWs)   bands (ev):

    -6.2443  -5.6782  -5.5659  -5.3888  -5.1752  -4.9787  -4.8874  -4.6137
    -4.3703  -4.2589  -4.0214  -3.9754  -3.8162  -3.7486  -3.6817  -3.5460
    -3.4264  -3.3269  -3.1731  -3.1085  -2.9972  -2.9160  -2.8816  -2.6899
    -2.5826  -2.5260  -2.4048  -2.3150  -2.2308  -2.1315  -2.0464  -1.9696
    -1.8891  -1.6957  -1.5454  -1.4682  -1.3524  -1.2217  -1.0046  -0.8647
    -0.8008  -0.5754  -0.5119  -0.4154  -0.3540  -0.2612  -0.0964  -0.0597
     0.0937   0.3384   0.3574   0.4710   0.5987   0.6924   0.7341   0.9184
     0.9678   1.0200   1.0970   1.2828   1.3883   1.4095   1.4243   1.6032
     1.8050   1.8909   1.9943   2.0357   2.1475   2.1992   2.2582   2.2961
     2.3640   2.4473   2.5010   2.5621   2.6307   2.6917   2.7739   2.8243
     2.8472   2.9421   3.0170   3.0553   3.0943   3.2232   3.2697   3.3040
     3.3269   3.3992   3.4562   3.4816   3.5476   3.5795   3.6433   3.6828
     3.7698   3.8041   3.8577   3.9384   3.9651   4.0369   4.1117   4.1734
     4.2454   4.2962   4.3408   4.3802   4.4683   4.5018   4.5799   4.6722
     4.6959   4.7711   4.7935   4.8590   4.8941   4.9540   5.0441   5.0790
     5.2075   5.2227   5.3244   5.4340   5.6948   5.7284   5.9019   6.0140
     6.1797   6.2708   6.3079   6.4012   6.5607   6.6177   6.6661   6.8246
     6.8958   6.9653   7.1117   7.1393   7.1925   7.2933   7.3559   7.4784
     7.5305   7.6129   7.7138   7.7931   7.8409   7.8903   7.9964   8.0489
     8.1471   8.2117   8.2505   8.3366   8.3761   8.4576

     occupation numbers 
     1.0000   1.0000   1.0000   1.0000   1.0000   1.0000   1.0000   1.0000
     1.0000   1.0000   1.0000   1.0000   1.0000   1.0000   1.0000   1.0000
     1.0000   1.0000   1.0000   1.0000   1.0000   1.0000   1.0000   1.0000
     1.0000   1.0000   1.0000   1.0000   1.0000   1.0000   1.0000   1.0000
     1.0000   1.0000   1.0000   1.0000   1.0000   1.0000   1.0000   1.0000
     1.0000   1.0000   1.0000   1.0000   1.0000   1.0000   1.0000   1.0000
     1.0000   1.0000   1.0000   1.0000   1.0000   1.0000   1.0000   1.0000
     1.0000   1.0000   1.0000   1.0000   1.0000   1.0000   1.0000   1.0000
     1.0000   1.0000   1.0000   1.0000   1.0000   1.0000   1.0000   1.0000
     1.0000   1.0000   1.0000   1.0000   1.0000   1.0000   1.0000   1.0000
     1.0000   1.0000   1.0000   1.0000   1.0000   1.0000   1.0000   1.0000
     1.0000   1.0000   1.0000   1.0000   1.0000   1.0000   1.0000   1.0000
     1.0000   1.0000   1.0000   1.0000   1.0001   1.0001   1.0002   1.0003
     1.0005   1.0008   1.0010   1.0013   1.0023   1.0029   1.0045   1.0075
     1.0085   1.0123   1.0136   1.0183   1.0212   1.0269   1.0371   1.0415
     1.0589   1.0610   1.0738   1.0825   1.0510   1.0389   0.9418   0.8488
     0.6799   0.5793   0.5384   0.4381   0.2860   0.2400   0.2047   0.1140
     0.0848   0.0623   0.0305   0.0264   0.0198   0.0111   0.0076   0.0035
     0.0024   0.0014   0.0006   0.0003   0.0002   0.0002   0.0001   0.0000
     0.0000   0.0000   0.0000   0.0000   0.0000   0.0000

     the Fermi energy is     6.4378 ev

!    total energy              =    -511.47134843 Ry
     Harris-Foulkes estimate   =    -511.47134843 Ry
     estimated scf accuracy    <          4.9E-09 Ry

     The total energy is the sum of the following terms:

     one-electron contribution =     134.19220844 Ry
     hartree contribution      =      47.45584665 Ry
     xc contribution           =    -159.13532690 Ry
     ewald contribution        =    -533.99626691 Ry
     smearing contrib. (-TS)   =       0.01219030 Ry

     convergence has been achieved in  20 iterations

     Forces acting on atoms (cartesian axes, Ry/au):

     atom    1 type  1   force =     0.00890366   -0.01827496    0.00397317
     atom    2 type  1   force =    -0.00104631    0.00417897    0.01244188
     atom    3 type  1   force =     0.00373352    0.01799629    0.01397468
     atom    4 type  1   force =    -0.00225588    0.00699062    0.00058539
     atom    5 type  1   force =    -0.02179291    0.00581232   -0.02038021
     atom    6 type  1   force =     0.00038056    0.00524915   -0.01162773
     atom    7 type  1   force =    -0.00254150    0.00564304   -0.01142944
     atom    8 type  1   force =     0.00328197   -0.00359414    0.00407136
     atom    9 type  1   force =     0.00105236    0.00219074   -0.00537179
     atom   10 type  1   force =    -0.00323925    0.00006390    0.00557102
     atom   11 type  1   force =    -0.00313011    0.00490744    0.00155165
     atom   12 type  1   force =     0.01251625   -0.00070618    0.00611370
     atom   13 type  1   force =    -0.01280340   -0.00265238    0.01132683
     atom   14 type  1   force =     0.00941452   -0.00543792    0.00735173
     atom   15 type  1   force =    -0.00170584    0.00996252   -0.01679553
     atom   16 type  1   force =    -0.00708948   -0.00929314    0.00538266
     atom   17 type  1   force =    -0.00700837   -0.00312262    0.00021070
     atom   18 type  1   force =     0.01224421    0.00948375    0.00380112
     atom   19 type  1   force =    -0.00713793   -0.00759935   -0.01097404
     atom   20 type  1   force =     0.00519815   -0.00454638    0.00170556
     atom   21 type  1   force =    -0.01461962    0.00367749    0.00679427
     atom   22 type  1   force =    -0.00178478   -0.00899484   -0.00160365
     atom   23 type  1   force =    -0.01498495    0.00008561    0.03001801
     atom   24 type  1   force =    -0.00237187   -0.00178270   -0.01287958
     atom   25 type  1   force =    -0.00671576    0.00904097   -0.00376406
     atom   26 type  1   force =    -0.00144623   -0.00397485    0.00968370
     atom   27 type  1   force =     0.02897471   -0.01501249   -0.01100435
     atom   28 type  1   force =     0.01268678   -0.00777746    0.00002382
     atom   29 type  1   force =    -0.01126498   -0.00209455   -0.00267660
     atom   30 type  1   force =    -0.00807172   -0.00158130    0.00879518
     atom   31 type  1   force =     0.00784845    0.00390534    0.00407641
     atom   32 type  1   force =     0.00188385    0.00247444   -0.00118172
     atom   33 type  1   force =     0.00150138    0.00206242   -0.01351291
     atom   34 type  1   force =    -0.00097168   -0.00875601   -0.00172366
     atom   35 type  1   force =     0.02238406   -0.00811504    0.01361124
     atom   36 type  1   force =     0.00410192    0.01663761    0.00239532
     atom   37 type  1   force =     0.00615607    0.01269334   -0.00042632
     atom   38 type  1   force =    -0.00754389   -0.00190699    0.01049379
     atom   39 type  1   force =    -0.00143308    0.00404600    0.00701520
     atom   40 type  1   force =    -0.00124499    0.00617177    0.00166684
     atom   41 type  1   force =    -0.00093813   -0.00881195   -0.01467563
     atom   42 type  1   force =    -0.01309484   -0.00014300   -0.00244549
     atom   43 type  1   force =     0.00545832    0.00777719    0.00508224
     atom   44 type  1   force =    -0.00047608   -0.00272469    0.00418426
     atom   45 type  1   force =     0.00362759    0.00851712   -0.00172694
     atom   46 type  1   force =     0.00246249   -0.00698922    0.00420220
     atom   47 type  1   force =     0.00129151   -0.00399305   -0.00866951
     atom   48 type  1   force =    -0.00932917   -0.01075322   -0.00182725
     atom   49 type  1   force =    -0.00143678    0.00317095    0.00315270
     atom   50 type  1   force =     0.00960711   -0.00627323    0.00168757
     atom   51 type  1   force =    -0.00270019    0.00636736   -0.00404113
     atom   52 type  1   force =    -0.00586352    0.00481511   -0.00192161
     atom   53 type  1   force =     0.02369475    0.01472990   -0.00544625
     atom   54 type  1   force =     0.00177944   -0.00114897    0.00036404
     atom   55 type  1   force =    -0.00353387   -0.02572069    0.01681323
     atom   56 type  1   force =    -0.00983298    0.00796581    0.00411303
     atom   57 type  1   force =    -0.00016742    0.01513301   -0.01561465
     atom   58 type  1   force =     0.00568959    0.00847692    0.00134477
     atom   59 type  1   force =    -0.01818120    0.00004578   -0.01312287
     atom   60 type  1   force =    -0.00192776   -0.01000500   -0.00946072
     atom   61 type  1   force =     0.00988580   -0.00799974   -0.00806403
     atom   62 type  1   force =    -0.00823876   -0.00052945    0.00534074
     atom   63 type  1   force =    -0.00247045   -0.01229775   -0.00426679
     atom   64 type  1   force =    -0.00280601   -0.00246954   -0.00575448
     atom   65 type  2   force =     0.01340904   -0.00174496    0.01241574
     atom   66 type  2   force =    -0.00450242    0.00126116   -0.00535304
     atom   67 type  2   force =    -0.00180840   -0.00775917    0.00679976
     atom   68 type  2   force =     0.00079520   -0.00035692    0.00260958
     atom   69 type  2   force =     0.00592947   -0.00376947   -0.00422423
     atom   70 type  2   force =     0.00633851    0.01434574   -0.00873823
     atom   71 type  2   force =     0.01671848    0.01579348   -0.01770383
     atom   72 type  2   force =    -0.01943722   -0.01295999    0.01766319
     The non-local contrib.  to forces
     atom    1 type  1   force =    -0.05703949    0.03509268   -0.02338203
     atom    2 type  1   force =    -0.04171465   -0.07141642    0.00592948
     atom    3 type  1   force =     0.04888623    0.06064526    0.12070695
     atom    4 type  1   force =    -0.01464027   -0.07575555   -0.02156909
     atom    5 type  1   force =     0.11937150   -0.02776247    0.11573308
     atom    6 type  1   force =    -0.01071290    0.01154208   -0.01781256
     atom    7 type  1   force =    -0.02200973   -0.08775185   -0.03349062
     atom    8 type  1   force =     0.01625451   -0.03919069    0.07769005
     atom    9 type  1   force =    -0.04592239    0.00910933    0.01385525
     atom   10 type  1   force =    -0.03496149    0.02858613   -0.07642715
     atom   11 type  1   force =    -0.03176740    0.04863543    0.02177876
     atom   12 type  1   force =     0.01955824    0.07063492    0.00513323
     atom   13 type  1   force =     0.00991580    0.00518360   -0.01089904
     atom   14 type  1   force =    -0.03424209   -0.03596392    0.07920668
     atom   15 type  1   force =     0.00601711   -0.00706298   -0.02009502
     atom   16 type  1   force =     0.05324320   -0.00049425   -0.01351351
     atom   17 type  1   force =    -0.00901205   -0.00024600   -0.08121865
     atom   18 type  1   force =    -0.04084052   -0.06527408   -0.03092648
     atom   19 type  1   force =    -0.03346760   -0.00066625   -0.05447657
     atom   20 type  1   force =    -0.00212812    0.04709068   -0.04142715
     atom   21 type  1   force =     0.13052755   -0.03891342   -0.07036131
     atom   22 type  1   force =     0.04629025   -0.01101020    0.01798262
     atom   23 type  1   force =     0.02859329   -0.02467890   -0.03608100
     atom   24 type  1   force =    -0.02677989    0.03663417   -0.05642589
     atom   25 type  1   force =    -0.07966821    0.05665422   -0.00252141
     atom   26 type  1   force =    -0.00719438   -0.01807825    0.05558144
     atom   27 type  1   force =    -0.01115931   -0.01392845    0.00889128
     atom   28 type  1   force =     0.09108358   -0.00216014   -0.01157659
     atom   29 type  1   force =    -0.06034823    0.04610231   -0.03856931
     atom   30 type  1   force =     0.04566673    0.06072083    0.02778394
     atom   31 type  1   force =    -0.00749922    0.00030750    0.02248274
     atom   32 type  1   force =     0.00149134   -0.01378318   -0.05341964
     atom   33 type  1   force =     0.07063609   -0.07155610    0.00275386
     atom   34 type  1   force =    -0.00646281   -0.03986963    0.01186217
     atom   35 type  1   force =     0.03685595   -0.02209589   -0.02468780
     atom   36 type  1   force =    -0.06774028    0.00493416    0.07969069
     atom   37 type  1   force =     0.10656466    0.05645766    0.02125238
     atom   38 type  1   force =    -0.03853129   -0.02983365   -0.08966611
     atom   39 type  1   force =     0.01637928    0.02525965    0.13888126
     atom   40 type  1   force =     0.11739413   -0.05088623   -0.03968076
     atom   41 type  1   force =    -0.04250145    0.04970232   -0.06027310
     atom   42 type  1   force =     0.00594477    0.00035957    0.00087899
     atom   43 type  1   force =    -0.03063854    0.04605948    0.02915831
     atom   44 type  1   force =     0.03155042   -0.09051361   -0.09145167
     atom   45 type  1   force =    -0.01732799    0.06406424    0.06726255
     atom   46 type  1   force =    -0.05583083   -0.08309369    0.03458493
     atom   47 type  1   force =    -0.00650425    0.02578306   -0.05442685
     atom   48 type  1   force =    -0.06713326   -0.01421585    0.00699057
     atom   49 type  1   force =     0.03113647    0.07702513    0.00360654
     atom   50 type  1   force =     0.03337575    0.09757858   -0.00438765
     atom   51 type  1   force =    -0.08946601    0.05864845    0.00062564
     atom   52 type  1   force =    -0.01508050   -0.01799336   -0.08269880
     atom   53 type  1   force =     0.03850605   -0.03887936    0.04355430
     atom   54 type  1   force =    -0.08255526   -0.01153927   -0.00331421
     atom   55 type  1   force =     0.04101195    0.04070641   -0.03360609
     atom   56 type  1   force =    -0.04359689   -0.09843423   -0.02463701
     atom   57 type  1   force =     0.02287211   -0.00531272   -0.01275313
     atom   58 type  1   force =     0.06147200   -0.03785888   -0.00927221
     atom   59 type  1   force =     0.03292378   -0.05442706    0.07134133
     atom   60 type  1   force =     0.03515142    0.00510833    0.04821459
     atom   61 type  1   force =    -0.00665257    0.06033355    0.03419748
     atom   62 type  1   force =     0.02040585   -0.00072116    0.04950189
[...]
     atom   25 type  1   force =     0.00000000    0.00000000    0.00000000
     atom   26 type  1   force =     0.00000000    0.00000000    0.00000000
     atom   27 type  1   force =     0.00000000    0.00000000    0.00000000
     atom   28 type  1   force =     0.00000000    0.00000000    0.00000000
     atom   29 type  1   force =     0.00000000    0.00000000    0.00000000
     atom   30 type  1   force =     0.00000000    0.00000000    0.00000000
     atom   31 type  1   force =     0.00000000    0.00000000    0.00000000
     atom   32 type  1   force =     0.00000000    0.00000000    0.00000000
     atom   33 type  1   force =     0.00000000    0.00000000    0.00000000
     atom   34 type  1   force =     0.00000000    0.00000000    0.00000000
     atom   35 type  1   force =     0.00000000    0.00000000    0.00000000
     atom   36 type  1   force =     0.00000000    0.00000000    0.00000000
     atom   37 type  1   force =     0.00000000    0.00000000    0.00000000
     atom   38 type  1   force =     0.00000000    0.00000000    0.00000000
     atom   39 type  1   force =     0.00000000    0.00000000    0.00000000
     atom   40 type  1   force =     0.00000000    0.00000000    0.00000000
     atom   41 type  1   force =     0.00000000    0.00000000    0.00000000
     atom   42 type  1   force =     0.00000000    0.00000000    0.00000000
     atom   43 type  1   force =     0.00000000    0.00000000    0.00000000
     atom   44 type  1   force =     0.00000000    0.00000000    0.00000000
     atom   45 type  1   force =     0.00000000    0.00000000    0.00000000
     atom   46 type  1   force =     0.00000000    0.00000000    0.00000000
     atom   47 type  1   force =     0.00000000    0.00000000    0.00000000
     atom   48 type  1   force =     0.00000000    0.00000000    0.00000000
     atom   49 type  1   force =     0.00000000    0.00000000    0.00000000
     atom   50 type  1   force =     0.00000000    0.00000000    0.00000000
     atom   51 type  1   force =     0.00000000    0.00000000    0.00000000
     atom   52 type  1   force =     0.00000000    0.00000000    0.00000000
     atom   53 type  1   force =     0.00000000    0.00000000    0.00000000
     atom   54 type  1   force =     0.00000000    0.00000000    0.00000000
     atom   55 type  1   force =     0.00000000    0.00000000    0.00000000
     atom   56 type  1   force =     0.00000000    0.00000000    0.00000000
     atom   57 type  1   force =     0.00000000    0.00000000    0.00000000
     atom   58 type  1   force =     0.00000000    0.00000000    0.00000000
     atom   59 type  1   force =     0.00000000    0.00000000    0.00000000
     atom   60 type  1   force =     0.00000000    0.00000000    0.00000000
     atom   61 type  1   force =     0.00000000    0.00000000    0.00000000
     atom   62 type  1   force =     0.00000000    0.00000000    0.00000000
     atom   63 type  1   force =     0.00000000    0.00000000    0.00000000
     atom   64 type  1   force =     0.00000000    0.00000000    0.00000000
     atom   65 type  2   force =     0.00000000    0.00000000    0.00000000
     atom   66 type  2   force =     0.00000000    0.00000000    0.00000000
     atom   67 type  2   force =     0.00000000    0.00000000    0.00000000
     atom   68 type  2   force =     0.00000000    0.00000000    0.00000000
     atom   69 type  2   force =     0.00000000    0.00000000    0.00000000
     atom   70 type  2   force =     0.00000000    0.00000000    0.00000000
     atom   71 type  2   force =     0.00000000    0.00000000    0.00000000
     atom   72 type  2   force =     0.00000000    0.00000000    0.00000000
     The Hubbard contrib.    to forces
     atom    1 type  1   force =     0.00000000    0.00000000    0.00000000
     atom    2 type  1   force =     0.00000000    0.00000000    0.00000000
     atom    3 type  1   force =     0.00000000    0.00000000    0.00000000
     atom    4 type  1   force =     0.00000000    0.00000000    0.00000000
     atom    5 type  1   force =     0.00000000    0.00000000    0.00000000
     atom    6 type  1   force =     0.00000000    0.00000000    0.00000000
     atom    7 type  1   force =     0.00000000    0.00000000    0.00000000
     atom    8 type  1   force =     0.00000000    0.00000000    0.00000000
     atom    9 type  1   force =     0.00000000    0.00000000    0.00000000
     atom   10 type  1   force =     0.00000000    0.00000000    0.00000000
     atom   11 type  1   force =     0.00000000    0.00000000    0.00000000
     atom   12 type  1   force =     0.00000000    0.00000000    0.00000000
     atom   13 type  1   force =     0.00000000    0.00000000    0.00000000
     atom   14 type  1   force =     0.00000000    0.00000000    0.00000000
     atom   15 type  1   force =     0.00000000    0.00000000    0.00000000
     atom   16 type  1   force =     0.00000000    0.00000000    0.00000000
     atom   17 type  1   force =     0.00000000    0.00000000    0.00000000
     atom   18 type  1   force =     0.00000000    0.00000000    0.00000000
     atom   19 type  1   force =     0.00000000    0.00000000    0.00000000
     atom   20 type  1   force =     0.00000000    0.00000000    0.00000000
     atom   21 type  1   force =     0.00000000    0.00000000    0.00000000
     atom   22 type  1   force =     0.00000000    0.00000000    0.00000000
     atom   23 type  1   force =     0.00000000    0.00000000    0.00000000
     atom   24 type  1   force =     0.00000000    0.00000000    0.00000000
     atom   25 type  1   force =     0.00000000    0.00000000    0.00000000
     atom   26 type  1   force =     0.00000000    0.00000000    0.00000000
     atom   27 type  1   force =     0.00000000    0.00000000    0.00000000
     atom   28 type  1   force =     0.00000000    0.00000000    0.00000000
     atom   29 type  1   force =     0.00000000    0.00000000    0.00000000
     atom   30 type  1   force =     0.00000000    0.00000000    0.00000000
     atom   31 type  1   force =     0.00000000    0.00000000    0.00000000
     atom   32 type  1   force =     0.00000000    0.00000000    0.00000000
     atom   33 type  1   force =     0.00000000    0.00000000    0.00000000
     atom   34 type  1   force =     0.00000000    0.00000000    0.00000000
     atom   35 type  1   force =     0.00000000    0.00000000    0.00000000
     atom   36 type  1   force =     0.00000000    0.00000000    0.00000000
     atom   37 type  1   force =     0.00000000    0.00000000    0.00000000
     atom   38 type  1   force =     0.00000000    0.00000000    0.00000000
     atom   39 type  1   force =     0.00000000    0.00000000    0.00000000
     atom   40 type  1   force =     0.00000000    0.00000000    0.00000000
     atom   41 type  1   force =     0.00000000    0.00000000    0.00000000
     atom   42 type  1   force =     0.00000000    0.00000000    0.00000000
     atom   43 type  1   force =     0.00000000    0.00000000    0.00000000
     atom   44 type  1   force =     0.00000000    0.00000000    0.00000000
     atom   45 type  1   force =     0.00000000    0.00000000    0.00000000
     atom   46 type  1   force =     0.00000000    0.00000000    0.00000000
     atom   47 type  1   force =     0.00000000    0.00000000    0.00000000
     atom   48 type  1   force =     0.00000000    0.00000000    0.00000000
     atom   49 type  1   force =     0.00000000    0.00000000    0.00000000
     atom   50 type  1   force =     0.00000000    0.00000000    0.00000000
     atom   51 type  1   force =     0.00000000    0.00000000    0.00000000
     atom   52 type  1   force =     0.00000000    0.00000000    0.00000000
     atom   53 type  1   force =     0.00000000    0.00000000    0.00000000
     atom   54 type  1   force =     0.00000000    0.00000000    0.00000000
     atom   55 type  1   force =     0.00000000    0.00000000    0.00000000
     atom   56 type  1   force =     0.00000000    0.00000000    0.00000000
     atom   57 type  1   force =     0.00000000    0.00000000    0.00000000
     atom   58 type  1   force =     0.00000000    0.00000000    0.00000000
     atom   59 type  1   force =     0.00000000    0.00000000    0.00000000
     atom   60 type  1   force =     0.00000000    0.00000000    0.00000000
     atom   61 type  1   force =     0.00000000    0.00000000    0.00000000
     atom   62 type  1   force =     0.00000000    0.00000000    0.00000000
     atom   63 type  1   force =     0.00000000    0.00000000    0.00000000
     atom   64 type  1   force =     0.00000000    0.00000000    0.00000000
     atom   65 type  2   force =     0.00000000    0.00000000    0.00000000
     atom   66 type  2   force =     0.00000000    0.00000000    0.00000000
     atom   67 type  2   force =     0.00000000    0.00000000    0.00000000
     atom   68 type  2   force =     0.00000000    0.00000000    0.00000000
     atom   69 type  2   force =     0.00000000    0.00000000    0.00000000
     atom   70 type  2   force =     0.00000000    0.00000000    0.00000000
     atom   71 type  2   force =     0.00000000    0.00000000    0.00000000
     atom   72 type  2   force =     0.00000000    0.00000000    0.00000000
     The SCF correction term to forces
     atom    1 type  1   force =    -0.00000951    0.00000017    0.00000556
     atom    2 type  1   force =     0.00000959   -0.00000801   -0.00000639
     atom    3 type  1   force =     0.00000575    0.00001318    0.00000589
     atom    4 type  1   force =    -0.00000658    0.00000974   -0.00000880
     atom    5 type  1   force =     0.00000476   -0.00001244   -0.00000345
     atom    6 type  1   force =     0.00000830    0.00000214    0.00000900
     atom    7 type  1   force =     0.00000800    0.00000899   -0.00000652
     atom    8 type  1   force =     0.00000990    0.00000712   -0.00000868
     atom    9 type  1   force =     0.00001150   -0.00001054    0.00000794
     atom   10 type  1   force =    -0.00000146    0.00000966    0.00000452
     atom   11 type  1   force =     0.00000836    0.00001077    0.00000221
     atom   12 type  1   force =     0.00000506   -0.00001345    0.00000382
     atom   13 type  1   force =    -0.00001081   -0.00001123    0.00000972
     atom   14 type  1   force =     0.00001281   -0.00001221   -0.00000714
     atom   15 type  1   force =    -0.00000335    0.00000235   -0.00000451
     atom   16 type  1   force =     0.00000284    0.00000623    0.00001098
     atom   17 type  1   force =     0.00000405   -0.00000987    0.00000469
     atom   18 type  1   force =    -0.00000384   -0.00001057    0.00000426
     atom   19 type  1   force =     0.00000942    0.00001204   -0.00000624
     atom   20 type  1   force =     0.00000568    0.00001203   -0.00000548
     atom   21 type  1   force =    -0.00001007   -0.00000943   -0.00000005
     atom   22 type  1   force =     0.00000843   -0.00000493    0.00000224
     atom   23 type  1   force =    -0.00000109   -0.00000036    0.00000621
     atom   24 type  1   force =     0.00000838    0.00001386    0.00001316
     atom   25 type  1   force =     0.00000660    0.00000032    0.00000366
     atom   26 type  1   force =     0.00000353   -0.00000681    0.00000041
     atom   27 type  1   force =     0.00000773   -0.00001186    0.00000279
     atom   28 type  1   force =     0.00000227    0.00000802    0.00001328
     atom   29 type  1   force =     0.00000327   -0.00000744   -0.00001073
     atom   30 type  1   force =     0.00000045    0.00001083   -0.00000406
     atom   31 type  1   force =    -0.00000920   -0.00000899    0.00000189
     atom   32 type  1   force =    -0.00000470   -0.00001169    0.00001206
     atom   33 type  1   force =    -0.00000022   -0.00000997   -0.00000287
     atom   34 type  1   force =    -0.00000732   -0.00000900   -0.00000780
     atom   35 type  1   force =     0.00000625    0.00000360   -0.00000197
     atom   36 type  1   force =     0.00000982    0.00000638   -0.00001082
     atom   37 type  1   force =    -0.00001040   -0.00001013   -0.00000503
     atom   38 type  1   force =     0.00000772   -0.00000718    0.00000661
     atom   39 type  1   force =     0.00001268    0.00000575   -0.00001228
     atom   40 type  1   force =    -0.00000017   -0.00000569    0.00001179
     atom   41 type  1   force =     0.00001284   -0.00000717   -0.00000190
     atom   42 type  1   force =    -0.00001155    0.00000220   -0.00000443
     atom   43 type  1   force =    -0.00001018    0.00000066    0.00000854
     atom   44 type  1   force =    -0.00001287    0.00000946    0.00000110
     atom   45 type  1   force =    -0.00000781    0.00000598   -0.00001072
     atom   46 type  1   force =    -0.00000429   -0.00000483   -0.00000789
     atom   47 type  1   force =    -0.00001293    0.00000705    0.00000609
     atom   48 type  1   force =    -0.00000544    0.00001033    0.00000793
     atom   49 type  1   force =    -0.00000843    0.00000875   -0.00000803
     atom   50 type  1   force =    -0.00000347    0.00000007    0.00000365
     atom   51 type  1   force =    -0.00000231    0.00000806   -0.00000240
     atom   52 type  1   force =     0.00000957   -0.00000400   -0.00000352
     atom   53 type  1   force =    -0.00000854    0.00001010   -0.00000046
     atom   54 type  1   force =    -0.00000123    0.00001270    0.00000465
     atom   55 type  1   force =    -0.00000635   -0.00000211   -0.00001127
     atom   56 type  1   force =     0.00000270   -0.00000768    0.00000635
     atom   57 type  1   force =     0.00000409    0.00000496   -0.00000072
     atom   58 type  1   force =    -0.00000342   -0.00001033   -0.00000936
     atom   59 type  1   force =    -0.00000184    0.00000678    0.00000581
     atom   60 type  1   force =    -0.00000411    0.00000220    0.00000573
     atom   61 type  1   force =    -0.00000915   -0.00000511   -0.00000964
     atom   62 type  1   force =    -0.00000063    0.00001327    0.00000549
     atom   63 type  1   force =    -0.00000485   -0.00000535   -0.00000204
     atom   64 type  1   force =    -0.00000783    0.00000994   -0.00000633
     atom   65 type  2   force =    -0.00000092    0.00000236    0.00000395
     atom   66 type  2   force =     0.00000221   -0.00000253    0.00000204
     atom   67 type  2   force =     0.00000135    0.00000218    0.00000224
     atom   68 type  2   force =     0.00000162   -0.00000070   -0.00000058
     atom   69 type  2   force =    -0.00000126   -0.00000233    0.00000054
     atom   70 type  2   force =    -0.00000090    0.00000248   -0.00000364
     atom   71 type  2   force =     0.00000078   -0.00000388   -0.00000143
     atom   72 type  2   force =    -0.00000003   -0.00000309   -0.00000124

     Total force =     0.132792     Total SCF correction =     0.000107


     Computing stress (Cartesian axis) and pressure

          total   stress  (Ry/bohr**3)                   (kbar)     P=    2.96
   0.00013334  -0.00002861  -0.00002821         19.61     -4.21     -4.15
  -0.00002861   0.00005618  -0.00006373         -4.21      8.26     -9.37
  -0.00002821  -0.00006373  -0.00012908         -4.15     -9.37    -18.99

     kinetic stress (kbar)   2347.76     -2.15     -4.14
                               -2.15   2333.43     -6.37
                               -4.14     -6.37   2298.74

     local   stress (kbar)  -1371.76     71.63   -100.82
                               71.63  -1336.08     69.28
                             -100.82     69.28  -1274.12

     nonloc. stress (kbar)   2548.78      9.13     -0.97
                                9.13   2532.70     -0.42
                               -0.97     -0.42   2540.37

     hartree stress (kbar)    291.13    -32.19     39.14
                              -32.19    283.23    -25.59
                               39.14    -25.59    221.37

     exc-cor stress (kbar)   -818.00     -0.21      0.06
                               -0.21   -817.56     -0.09
                                0.06     -0.09   -817.12

     corecor stress (kbar)      0.00      0.00      0.00
                                0.00      0.00      0.00
                                0.00      0.00      0.00

     ewald   stress (kbar)  -2978.29    -50.42     62.58
                              -50.42  -2987.46    -46.19
                               62.58    -46.19  -2988.23

     hubbard stress (kbar)      0.00      0.00      0.00
                                0.00      0.00      0.00
                                0.00      0.00      0.00

     london  stress (kbar)      0.00      0.00      0.00
                                0.00      0.00      0.00
                                0.00      0.00      0.00

     DFT-D3  stress (kbar)      0.00      0.00      0.00
                                0.00      0.00      0.00
                                0.00      0.00      0.00

     XDM     stress (kbar)      0.00      0.00      0.00
                                0.00      0.00      0.00
                                0.00      0.00      0.00

     dft-nl  stress (kbar)      0.00      0.00      0.00
                                0.00      0.00      0.00
                                0.00      0.00      0.00

     TS-vdW  stress (kbar)      0.00      0.00      0.00
                                0.00      0.00      0.00
                                0.00      0.00      0.00



     Writing output data file liquid_optimize2.save

     init_run     :     21.71s CPU     22.73s WALL (       1 calls)
     electrons    :    866.89s CPU    941.25s WALL (       1 calls)
     forces       :      5.82s CPU      5.90s WALL (       1 calls)
     stress       :     35.84s CPU     36.00s WALL (       1 calls)

     Called by init_run:
     wfcinit      :     21.09s CPU     22.08s WALL (       1 calls)
     wfcinit:atom :      0.13s CPU      0.24s WALL (      14 calls)
     wfcinit:wfcr :     19.27s CPU     19.98s WALL (      14 calls)
     potinit      :      0.16s CPU      0.18s WALL (       1 calls)

     Called by electrons:
     c_bands      :    764.47s CPU    830.18s WALL (      21 calls)
     sum_band     :    100.40s CPU    104.19s WALL (      21 calls)
     v_of_rho     :      1.72s CPU      1.77s WALL (      21 calls)
     v_h          :      0.09s CPU      0.10s WALL (      21 calls)
     v_xc         :      1.63s CPU      1.67s WALL (      21 calls)
     mix_rho      :      0.32s CPU      0.35s WALL (      21 calls)

     Called by c_bands:
     init_us_2    :      6.09s CPU      6.12s WALL (     630 calls)
     cegterg      :    754.19s CPU    790.06s WALL (     294 calls)

     Called by sum_band:

     Called by *egterg:
     h_psi        :    533.14s CPU    551.28s WALL (    1277 calls)
     g_psi        :      2.14s CPU      2.14s WALL (     969 calls)
     cdiaghg      :     81.16s CPU     81.42s WALL (    1249 calls)
     cegterg:over :     59.59s CPU     60.47s WALL (     969 calls)
     cegterg:upda :     43.08s CPU     43.18s WALL (     969 calls)
     cegterg:last :     22.84s CPU     22.87s WALL (     294 calls)

     Called by h_psi:
     h_psi:pot    :    529.16s CPU    547.13s WALL (    1277 calls)
     h_psi:calbec :     47.62s CPU     48.11s WALL (    1277 calls)
     vloc_psi     :    431.75s CPU    449.18s WALL (    1277 calls)
     add_vuspsi   :     49.77s CPU     49.83s WALL (    1277 calls)

     General routines
     calbec       :     52.78s CPU     53.34s WALL (    1347 calls)
     fft          :      0.81s CPU      0.87s WALL (     240 calls)
     fftw         :    481.43s CPU    501.26s WALL (  269272 calls)

     Parallel routines
     fft_scatt_xy :     59.42s CPU     62.73s WALL (  269512 calls)
     fft_scatt_yz :     85.80s CPU     93.29s WALL (  269512 calls)

     PWSCF        : 15m31.53s CPU    16m51.32s WALL


   This run was terminated on:   8:47:17   7Nov2020            

=------------------------------------------------------------------------------=
   JOB DONE.
=------------------------------------------------------------------------------=
