
     Program PWSCF v.6.2 (svn rev. 14038) starts on  7Nov2020 at  8:58:28 

     This program is part of the open-source Quantum ESPRESSO suite
     for quantum simulation of materials; please cite
         "P. Giannozzi et al., J. Phys.:Condens. Matter 21 395502 (2009);
         "P. Giannozzi et al., J. Phys.:Condens. Matter 29 465901 (2017);
          URL http://www.quantum-espresso.org", 
     in publications or presentations arising from this work. More details at
     http://www.quantum-espresso.org/quote

     Parallel version (MPI), running on     8 processors

     MPI processes distributed on     1 nodes
     R & G space division:  proc/nbgrp/npool/nimage =       8
     Waiting for input...
     Reading input from standard input
Warning: card &IONS ignored
Warning: card / ignored

     Current dimensions of program PWSCF are:
     Max number of different atomic species (ntypx) = 10
     Max number of k-points (npk) =  40000
     Max angular momentum in pseudopotentials (lmaxx) =  3

     Subspace diagonalization in iterative solution of the eigenvalue problem:
     a serial algorithm will be used


     Parallelization info
     --------------------
     sticks:   dense  smooth     PW     G-vecs:    dense   smooth      PW
     Min         712     712    185                40336    40336    5464
     Max         714     714    187                40337    40337    5470
     Sum        5705    5705   1489               322693   322693   43723



     bravais-lattice index     =            0
     lattice parameter (alat)  =      20.6245  a.u.
     unit-cell volume          =    8773.0332 (a.u.)^3
     number of atoms/cell      =           72
     number of atomic types    =            2
     number of electrons       =       264.00
     number of Kohn-Sham states=          158
     kinetic-energy cutoff     =      42.0000  Ry
     charge density cutoff     =     168.0000  Ry
     convergence threshold     =      1.0E-08
     mixing beta               =       0.3000
     number of iterations used =            8  plain     mixing
     Exchange-correlation      = SLA-PW-PBX-PBC ( 1  4  3  4 0 0)

     celldm(1)=  20.624492  celldm(2)=   0.000000  celldm(3)=   0.000000
     celldm(4)=   0.000000  celldm(5)=   0.000000  celldm(6)=   0.000000

     crystal axes: (cart. coord. in units of alat)
               a(1) = (   1.000000   0.000000   0.000000 )  
               a(2) = (   0.000000   1.000000   0.000000 )  
               a(3) = (   0.000000   0.000000   1.000000 )  

     reciprocal axes: (cart. coord. in units 2 pi/alat)
               b(1) = (  1.000000  0.000000  0.000000 )  
               b(2) = (  0.000000  1.000000  0.000000 )  
               b(3) = (  0.000000  0.000000  1.000000 )  


     PseudoPot. # 1 for Si read from file:
     ./Si.pbe-hgh.UPF
     MD5 check sum: 9a9f0f6e09139bfdb36b03ff6bc35900
     Pseudo is Norm-conserving, Zval =  4.0
     Generated in analytical, separable form
     Using radial grid of 1141 points,  3 beta functions with: 
                l(1) =   0
                l(2) =   0
                l(3) =   1

     PseudoPot. # 2 for H  read from file:
     ./H.pbe-hgh.UPF
     MD5 check sum: 5f350582108a937bec95f27f5610ab08
     Pseudo is Norm-conserving, Zval =  1.0
     Generated in analytical, separable form
     Using radial grid of  929 points,  0 beta functions with: 

     atomic species   valence    mass     pseudopotential
        Si             4.00    28.08000     Si( 1.00)
        H              1.00     1.00784     H ( 1.00)

     No symmetry found


                                    s                        frac. trans.

      isym =  1     identity                                     

 cryst.   s( 1) = (     1          0          0      )
                  (     0          1          0      )
                  (     0          0          1      )

 cart.    s( 1) = (  1.0000000  0.0000000  0.0000000 )
                  (  0.0000000  1.0000000  0.0000000 )
                  (  0.0000000  0.0000000  1.0000000 )


   Cartesian axes

     site n.     atom                  positions (alat units)
         1           Si  tau(   1) = (   0.8734470   0.1615920   0.4435280  )
         2           Si  tau(   2) = (   0.3278660   0.0811349   0.9637660  )
         3           Si  tau(   3) = (   0.3666620   0.4146960   0.3392140  )
         4           Si  tau(   4) = (   0.8634540   0.3837930   0.1312720  )
         5           Si  tau(   5) = (   0.4054830   0.8620300   0.2086360  )
         6           Si  tau(   6) = (   0.4446540   0.5951420   0.4215430  )
         7           Si  tau(   7) = (   0.6031740   0.1932840   0.9115670  )
         8           Si  tau(   8) = (   0.3675770   0.5658040   0.9509780  )
         9           Si  tau(   9) = (   0.4030020   0.9176350   0.5247920  )
        10           Si  tau(  10) = (   0.7116930   0.3674190   0.8169000  )
        11           Si  tau(  11) = (   0.4018860   0.3044860   0.6723530  )
        12           Si  tau(  12) = (   0.2984880   0.7396940   0.4596270  )
        13           Si  tau(  13) = (   0.9104620   0.8923190   0.7259770  )
        14           Si  tau(  14) = (   0.4441730   0.9070780   0.0026113  )
        15           Si  tau(  15) = (   0.1587490   0.1984960   0.2274220  )
        16           Si  tau(  16) = (   0.5610360   0.1345600   0.7082070  )
        17           Si  tau(  17) = (   0.2210340   0.8101120   0.7644430  )
        18           Si  tau(  18) = (   0.9709890   0.7516790   0.5732440  )
        19           Si  tau(  19) = (   0.5403230   0.5389160   0.0827872  )
        20           Si  tau(  20) = (   0.2821040   0.3980840   0.8353290  )
        21           Si  tau(  21) = (   0.7699450   0.9754810   0.4264330  )
        22           Si  tau(  22) = (   0.3499620   0.1113960   0.7552300  )
        23           Si  tau(  23) = (   0.2098450   0.1172280   0.4214720  )
        24           Si  tau(  24) = (   0.6068180   0.3671550   0.6269170  )
        25           Si  tau(  25) = (   0.1605900   0.4531480   0.6427610  )
        26           Si  tau(  26) = (   0.5600810   0.1756620   0.3009060  )
        27           Si  tau(  27) = (   0.4000460   0.0332635   0.3447210  )
        28           Si  tau(  28) = (   0.5993030   0.5782870   0.5728920  )
        29           Si  tau(  29) = (   0.6888670   0.7797540   0.0888731  )
        30           Si  tau(  30) = (   0.7467860   0.4476150   0.3116160  )
        31           Si  tau(  31) = (   0.0375387   0.8080850   0.8809820  )
        32           Si  tau(  32) = (   0.6971150   0.8703180   0.7531610  )
        33           Si  tau(  33) = (   0.6454160   0.9589510   0.9425140  )
        34           Si  tau(  34) = (   0.8165300   0.0380668   0.0471820  )
        35           Si  tau(  35) = (   0.2122590   0.7486290   0.2623550  )
        36           Si  tau(  36) = (   0.6782540   0.5557050   0.9153770  )
        37           Si  tau(  37) = (   0.0039109   0.9303380   0.0549040  )
        38           Si  tau(  38) = (   0.5923760   0.6850300   0.7611410  )
        39           Si  tau(  39) = (   0.4139040   0.2752010   0.9993730  )
        40           Si  tau(  40) = (   0.6096560   0.9639230   0.5814280  )
        41           Si  tau(  41) = (   0.4059260   0.7527490   0.8537920  )
        42           Si  tau(  42) = (   0.0419737   0.5913590   0.9162650  )
        43           Si  tau(  43) = (   0.0111448   0.0773341   0.7023560  )
        44           Si  tau(  44) = (   0.9389290   0.2600070   0.7976620  )
        45           Si  tau(  45) = (   0.8079640   0.2412160   0.9783290  )
        46           Si  tau(  46) = (   0.1317450   0.1052390   0.0401317  )
        47           Si  tau(  47) = (   0.9583080   0.3881860   0.6118680  )
        48           Si  tau(  48) = (   0.9499230   0.4691630   0.3949770  )
        49           Si  tau(  49) = (   0.0637436   0.4666780   0.0877018  )
        50           Si  tau(  50) = (   0.1686380   0.6697610   0.6112770  )
        51           Si  tau(  51) = (   0.0272110   0.6207790   0.2557580  )
        52           Si  tau(  52) = (   0.5072980   0.3475320   0.1817420  )
        53           Si  tau(  53) = (   0.9705550   0.2764160   0.2886400  )
        54           Si  tau(  54) = (   0.2605230   0.3694380   0.1544160  )
        55           Si  tau(  55) = (   0.8505940   0.6629230   0.9746950  )
        56           Si  tau(  56) = (   0.2194960   0.9918040   0.6436950  )
        57           Si  tau(  57) = (   0.5474240   0.6902640   0.2440460  )
        58           Si  tau(  58) = (   0.7032170   0.0325075   0.2312960  )
        59           Si  tau(  59) = (   0.6882580   0.2813110   0.4436970  )
        60           Si  tau(  60) = (   0.7030700   0.6441900   0.3926040  )
        61           Si  tau(  61) = (   0.8973090   0.7733660   0.1695020  )
        62           Si  tau(  62) = (   0.2701490   0.3137900   0.5026650  )
        63           Si  tau(  63) = (   0.8651350   0.7863550   0.3906160  )
        64           Si  tau(  64) = (   0.1036430   0.2985700   0.9318120  )
        65           H   tau(  65) = (   0.9540190   0.1176530   0.5712930  )
        66           H   tau(  66) = (   0.0367258   0.5213720   0.7937310  )
        67           H   tau(  67) = (   0.9009160   0.6467300   0.6309290  )
        68           H   tau(  68) = (   0.0710090   0.0819356   0.4436080  )
        69           H   tau(  69) = (   0.8909770   0.4982050   0.6675950  )
        70           H   tau(  70) = (   0.6285120   0.9162760   0.1988100  )
        71           H   tau(  71) = (   0.2766880   0.6113320   0.0430827  )
        72           H   tau(  72) = (   0.2794440   0.6379320   0.2091660  )

   Crystallographic axes

     site n.     atom                  positions (cryst. coord.)
         1           Si  tau(   1) = (  0.8734470  0.1615920  0.4435280  )
         2           Si  tau(   2) = (  0.3278660  0.0811349  0.9637660  )
         3           Si  tau(   3) = (  0.3666620  0.4146960  0.3392140  )
         4           Si  tau(   4) = (  0.8634540  0.3837930  0.1312720  )
         5           Si  tau(   5) = (  0.4054830  0.8620300  0.2086360  )
         6           Si  tau(   6) = (  0.4446540  0.5951420  0.4215430  )
         7           Si  tau(   7) = (  0.6031740  0.1932840  0.9115670  )
         8           Si  tau(   8) = (  0.3675770  0.5658040  0.9509780  )
         9           Si  tau(   9) = (  0.4030020  0.9176350  0.5247920  )
        10           Si  tau(  10) = (  0.7116930  0.3674190  0.8169000  )
        11           Si  tau(  11) = (  0.4018860  0.3044860  0.6723530  )
        12           Si  tau(  12) = (  0.2984880  0.7396940  0.4596270  )
        13           Si  tau(  13) = (  0.9104620  0.8923190  0.7259770  )
        14           Si  tau(  14) = (  0.4441730  0.9070780  0.0026113  )
        15           Si  tau(  15) = (  0.1587490  0.1984960  0.2274220  )
        16           Si  tau(  16) = (  0.5610360  0.1345600  0.7082070  )
        17           Si  tau(  17) = (  0.2210340  0.8101120  0.7644430  )
        18           Si  tau(  18) = (  0.9709890  0.7516790  0.5732440  )
        19           Si  tau(  19) = (  0.5403230  0.5389160  0.0827872  )
        20           Si  tau(  20) = (  0.2821040  0.3980840  0.8353290  )
        21           Si  tau(  21) = (  0.7699450  0.9754810  0.4264330  )
        22           Si  tau(  22) = (  0.3499620  0.1113960  0.7552300  )
        23           Si  tau(  23) = (  0.2098450  0.1172280  0.4214720  )
        24           Si  tau(  24) = (  0.6068180  0.3671550  0.6269170  )
        25           Si  tau(  25) = (  0.1605900  0.4531480  0.6427610  )
        26           Si  tau(  26) = (  0.5600810  0.1756620  0.3009060  )
        27           Si  tau(  27) = (  0.4000460  0.0332635  0.3447210  )
        28           Si  tau(  28) = (  0.5993030  0.5782870  0.5728920  )
        29           Si  tau(  29) = (  0.6888670  0.7797540  0.0888731  )
        30           Si  tau(  30) = (  0.7467860  0.4476150  0.3116160  )
        31           Si  tau(  31) = (  0.0375387  0.8080850  0.8809820  )
        32           Si  tau(  32) = (  0.6971150  0.8703180  0.7531610  )
        33           Si  tau(  33) = (  0.6454160  0.9589510  0.9425140  )
        34           Si  tau(  34) = (  0.8165300  0.0380668  0.0471820  )
        35           Si  tau(  35) = (  0.2122590  0.7486290  0.2623550  )
        36           Si  tau(  36) = (  0.6782540  0.5557050  0.9153770  )
        37           Si  tau(  37) = (  0.0039109  0.9303380  0.0549040  )
        38           Si  tau(  38) = (  0.5923760  0.6850300  0.7611410  )
        39           Si  tau(  39) = (  0.4139040  0.2752010  0.9993730  )
        40           Si  tau(  40) = (  0.6096560  0.9639230  0.5814280  )
        41           Si  tau(  41) = (  0.4059260  0.7527490  0.8537920  )
        42           Si  tau(  42) = (  0.0419737  0.5913590  0.9162650  )
        43           Si  tau(  43) = (  0.0111448  0.0773341  0.7023560  )
        44           Si  tau(  44) = (  0.9389290  0.2600070  0.7976620  )
        45           Si  tau(  45) = (  0.8079640  0.2412160  0.9783290  )
        46           Si  tau(  46) = (  0.1317450  0.1052390  0.0401317  )
        47           Si  tau(  47) = (  0.9583080  0.3881860  0.6118680  )
        48           Si  tau(  48) = (  0.9499230  0.4691630  0.3949770  )
        49           Si  tau(  49) = (  0.0637436  0.4666780  0.0877018  )
        50           Si  tau(  50) = (  0.1686380  0.6697610  0.6112770  )
        51           Si  tau(  51) = (  0.0272110  0.6207790  0.2557580  )
        52           Si  tau(  52) = (  0.5072980  0.3475320  0.1817420  )
        53           Si  tau(  53) = (  0.9705550  0.2764160  0.2886400  )
        54           Si  tau(  54) = (  0.2605230  0.3694380  0.1544160  )
        55           Si  tau(  55) = (  0.8505940  0.6629230  0.9746950  )
        56           Si  tau(  56) = (  0.2194960  0.9918040  0.6436950  )
        57           Si  tau(  57) = (  0.5474240  0.6902640  0.2440460  )
        58           Si  tau(  58) = (  0.7032170  0.0325075  0.2312960  )
        59           Si  tau(  59) = (  0.6882580  0.2813110  0.4436970  )
        60           Si  tau(  60) = (  0.7030700  0.6441900  0.3926040  )
        61           Si  tau(  61) = (  0.8973090  0.7733660  0.1695020  )
        62           Si  tau(  62) = (  0.2701490  0.3137900  0.5026650  )
        63           Si  tau(  63) = (  0.8651350  0.7863550  0.3906160  )
        64           Si  tau(  64) = (  0.1036430  0.2985700  0.9318120  )
        65           H   tau(  65) = (  0.9540190  0.1176530  0.5712930  )
        66           H   tau(  66) = (  0.0367258  0.5213720  0.7937310  )
        67           H   tau(  67) = (  0.9009160  0.6467300  0.6309290  )
        68           H   tau(  68) = (  0.0710090  0.0819356  0.4436080  )
        69           H   tau(  69) = (  0.8909770  0.4982050  0.6675950  )
        70           H   tau(  70) = (  0.6285120  0.9162760  0.1988100  )
        71           H   tau(  71) = (  0.2766880  0.6113320  0.0430827  )
        72           H   tau(  72) = (  0.2794440  0.6379320  0.2091660  )

     number of k points=    14  Marzari-Vanderbilt smearing, width (Ry)=  0.0500
                       cart. coord. in units 2pi/alat
        k(    1) = (   0.0000000   0.0000000   0.0000000), wk =   0.0740741
        k(    2) = (   0.0000000   0.0000000   0.3333333), wk =   0.1481481
        k(    3) = (   0.0000000   0.3333333   0.3333333), wk =   0.1481481
        k(    4) = (   0.3333333   0.3333333   0.3333333), wk =   0.1481481
        k(    5) = (   0.3333333   0.0000000   0.0000000), wk =   0.1481481
        k(    6) = (   0.0000000   0.3333333   0.0000000), wk =   0.1481481
        k(    7) = (   0.0000000  -0.3333333   0.3333333), wk =   0.1481481
        k(    8) = (   0.3333333   0.0000000  -0.3333333), wk =   0.1481481
        k(    9) = (  -0.3333333   0.0000000  -0.3333333), wk =   0.1481481
        k(   10) = (   0.3333333  -0.3333333   0.0000000), wk =   0.1481481
        k(   11) = (  -0.3333333  -0.3333333   0.0000000), wk =   0.1481481
        k(   12) = (  -0.3333333  -0.3333333   0.3333333), wk =   0.1481481
        k(   13) = (  -0.3333333   0.3333333  -0.3333333), wk =   0.1481481
        k(   14) = (   0.3333333  -0.3333333  -0.3333333), wk =   0.1481481

                       cryst. coord.
        k(    1) = (   0.0000000   0.0000000   0.0000000), wk =   0.0740741
        k(    2) = (   0.0000000   0.0000000   0.3333333), wk =   0.1481481
        k(    3) = (   0.0000000   0.3333333   0.3333333), wk =   0.1481481
        k(    4) = (   0.3333333   0.3333333   0.3333333), wk =   0.1481481
        k(    5) = (   0.3333333   0.0000000   0.0000000), wk =   0.1481481
        k(    6) = (   0.0000000   0.3333333   0.0000000), wk =   0.1481481
        k(    7) = (   0.0000000  -0.3333333   0.3333333), wk =   0.1481481
        k(    8) = (   0.3333333   0.0000000  -0.3333333), wk =   0.1481481
        k(    9) = (  -0.3333333   0.0000000  -0.3333333), wk =   0.1481481
        k(   10) = (   0.3333333  -0.3333333   0.0000000), wk =   0.1481481
        k(   11) = (  -0.3333333  -0.3333333   0.0000000), wk =   0.1481481
        k(   12) = (  -0.3333333  -0.3333333   0.3333333), wk =   0.1481481
        k(   13) = (  -0.3333333   0.3333333  -0.3333333), wk =   0.1481481
        k(   14) = (   0.3333333  -0.3333333  -0.3333333), wk =   0.1481481

     Dense  grid:   322693 G-vectors     FFT dimensions: (  90,  90,  90)

     Dynamical RAM for                 wfc:      12.15 MB

     Dynamical RAM for     wfc (w. buffer):     182.26 MB

     Dynamical RAM for           str. fact:       1.23 MB

     Dynamical RAM for           local pot:       0.00 MB

     Dynamical RAM for          nlocal pot:      24.61 MB

     Dynamical RAM for                qrad:       1.17 MB

     Dynamical RAM for          rho,v,vnew:       4.07 MB

     Dynamical RAM for               rhoin:       1.36 MB

     Dynamical RAM for            rho*nmix:       9.85 MB

     Dynamical RAM for           G-vectors:       2.62 MB

     Dynamical RAM for          h,s,v(r/c):      18.28 MB

     Dynamical RAM for          <psi|beta>:       0.77 MB

     Dynamical RAM for                 psi:      48.60 MB

     Dynamical RAM for                hpsi:      48.60 MB

     Dynamical RAM for      wfcinit/wfcrot:      42.20 MB

     Estimated static dynamical RAM per process >     232.72 MB

     Estimated max dynamical RAM per process >     348.98 MB

     Estimated total dynamical RAM >       2.73 GB

     Initial potential from superposition of free atoms

     starting charge  263.96413, renormalised to  264.00000
     Starting wfc are  264 randomized atomic wfcs

     total cpu time spent up to now is       28.8 secs

     Self-consistent Calculation

     iteration #  1     ecut=    42.00 Ry     beta= 0.30
     Davidson diagonalization with overlap
     ethr =  1.00E-02,  avg # of iterations =  3.0

     Threshold (ethr) on eigenvalues was too large:
     Diagonalizing with lowered threshold

     Davidson diagonalization with overlap
     ethr =  7.98E-04,  avg # of iterations =  2.1

     total cpu time spent up to now is      133.7 secs

     total energy              =    -511.65013325 Ry
     Harris-Foulkes estimate   =    -512.11151448 Ry
     estimated scf accuracy    <       2.08811387 Ry

     iteration #  2     ecut=    42.00 Ry     beta= 0.30
     Davidson diagonalization with overlap
     ethr =  7.91E-04,  avg # of iterations =  2.0

     total cpu time spent up to now is      176.3 secs

     total energy              =    -511.56736049 Ry
     Harris-Foulkes estimate   =    -511.76697817 Ry
     estimated scf accuracy    <       0.81462272 Ry

     iteration #  3     ecut=    42.00 Ry     beta= 0.30
     Davidson diagonalization with overlap
     ethr =  3.09E-04,  avg # of iterations =  5.1

     total cpu time spent up to now is      234.7 secs

     total energy              =    -511.53655257 Ry
     Harris-Foulkes estimate   =    -511.72832909 Ry
     estimated scf accuracy    <       0.89655836 Ry

     iteration #  4     ecut=    42.00 Ry     beta= 0.30
     Davidson diagonalization with overlap
     ethr =  3.09E-04,  avg # of iterations =  2.6

     total cpu time spent up to now is      289.5 secs

     total energy              =    -511.61950484 Ry
     Harris-Foulkes estimate   =    -511.63374598 Ry
     estimated scf accuracy    <       0.08297130 Ry

     iteration #  5     ecut=    42.00 Ry     beta= 0.30
     Davidson diagonalization with overlap
     ethr =  3.14E-05,  avg # of iterations =  7.6

     total cpu time spent up to now is      352.2 secs

     total energy              =    -511.62389582 Ry
     Harris-Foulkes estimate   =    -511.63132624 Ry
     estimated scf accuracy    <       0.03299204 Ry

     iteration #  6     ecut=    42.00 Ry     beta= 0.30
     Davidson diagonalization with overlap
     ethr =  1.25E-05,  avg # of iterations =  4.9

     total cpu time spent up to now is      411.2 secs

     total energy              =    -511.62662464 Ry
     Harris-Foulkes estimate   =    -511.63000692 Ry
     estimated scf accuracy    <       0.01843097 Ry

     iteration #  7     ecut=    42.00 Ry     beta= 0.30
     Davidson diagonalization with overlap
     ethr =  6.98E-06,  avg # of iterations =  2.9

     total cpu time spent up to now is      455.8 secs

     total energy              =    -511.62801973 Ry
     Harris-Foulkes estimate   =    -511.62873823 Ry
     estimated scf accuracy    <       0.00340167 Ry

     iteration #  8     ecut=    42.00 Ry     beta= 0.30
     Davidson diagonalization with overlap
     ethr =  1.29E-06,  avg # of iterations =  4.6

     total cpu time spent up to now is      511.1 secs

     total energy              =    -511.62832256 Ry
     Harris-Foulkes estimate   =    -511.62869751 Ry
     estimated scf accuracy    <       0.00195095 Ry

     iteration #  9     ecut=    42.00 Ry     beta= 0.30
     Davidson diagonalization with overlap
     ethr =  7.39E-07,  avg # of iterations =  2.7

     total cpu time spent up to now is      554.8 secs

     total energy              =    -511.62850110 Ry
     Harris-Foulkes estimate   =    -511.62853139 Ry
     estimated scf accuracy    <       0.00019946 Ry

     iteration # 10     ecut=    42.00 Ry     beta= 0.30
     Davidson diagonalization with overlap
     ethr =  7.56E-08,  avg # of iterations =  3.0

     total cpu time spent up to now is      603.3 secs

     total energy              =    -511.62851692 Ry
     Harris-Foulkes estimate   =    -511.62853125 Ry
     estimated scf accuracy    <       0.00006808 Ry

     iteration # 11     ecut=    42.00 Ry     beta= 0.30
     Davidson diagonalization with overlap
     ethr =  2.58E-08,  avg # of iterations =  3.0

     total cpu time spent up to now is      649.8 secs

     total energy              =    -511.62852155 Ry
     Harris-Foulkes estimate   =    -511.62852968 Ry
     estimated scf accuracy    <       0.00004237 Ry

     iteration # 12     ecut=    42.00 Ry     beta= 0.30
     Davidson diagonalization with overlap
     ethr =  1.61E-08,  avg # of iterations =  2.8

     total cpu time spent up to now is      692.5 secs

     total energy              =    -511.62852610 Ry
     Harris-Foulkes estimate   =    -511.62852686 Ry
     estimated scf accuracy    <       0.00000594 Ry

     iteration # 13     ecut=    42.00 Ry     beta= 0.30
     Davidson diagonalization with overlap
     ethr =  2.25E-09,  avg # of iterations =  3.0

     total cpu time spent up to now is      740.0 secs

     total energy              =    -511.62852674 Ry
     Harris-Foulkes estimate   =    -511.62852697 Ry
     estimated scf accuracy    <       0.00000162 Ry

     iteration # 14     ecut=    42.00 Ry     beta= 0.30
     Davidson diagonalization with overlap
     ethr =  6.13E-10,  avg # of iterations =  3.0

     total cpu time spent up to now is      787.0 secs

     total energy              =    -511.62852693 Ry
     Harris-Foulkes estimate   =    -511.62852706 Ry
     estimated scf accuracy    <       0.00000101 Ry

     iteration # 15     ecut=    42.00 Ry     beta= 0.30
     Davidson diagonalization with overlap
     ethr =  3.83E-10,  avg # of iterations =  3.0

     total cpu time spent up to now is      831.9 secs

     total energy              =    -511.62852707 Ry
     Harris-Foulkes estimate   =    -511.62852705 Ry
     estimated scf accuracy    <       0.00000016 Ry

     iteration # 16     ecut=    42.00 Ry     beta= 0.30
     Davidson diagonalization with overlap
     ethr =  6.02E-11,  avg # of iterations =  3.0

     total cpu time spent up to now is      882.7 secs

     total energy              =    -511.62852709 Ry
     Harris-Foulkes estimate   =    -511.62852709 Ry
     estimated scf accuracy    <       0.00000007 Ry

     iteration # 17     ecut=    42.00 Ry     beta= 0.30
     Davidson diagonalization with overlap
     ethr =  2.79E-11,  avg # of iterations =  3.0

     total cpu time spent up to now is      935.5 secs

     total energy              =    -511.62852711 Ry
     Harris-Foulkes estimate   =    -511.62852711 Ry
     estimated scf accuracy    <       0.00000004 Ry

     iteration # 18     ecut=    42.00 Ry     beta= 0.30
     Davidson diagonalization with overlap
     ethr =  1.63E-11,  avg # of iterations =  3.0

     total cpu time spent up to now is      979.6 secs

     End of self-consistent calculation

          k = 0.0000 0.0000 0.0000 ( 40339 PWs)   bands (ev):

    -6.1748  -5.4150  -5.2407  -5.1366  -5.0273  -5.0004  -4.8262  -4.4905
    -4.3873  -4.2893  -4.1666  -4.0948  -4.0076  -3.8939  -3.8579  -3.7907
    -3.5750  -3.4352  -3.3979  -3.2144  -3.1683  -3.0663  -2.9395  -2.8469
    -2.7636  -2.4145  -2.2248  -2.0965  -1.9606  -1.8798  -1.7704  -1.5879
    -1.4754  -1.4431  -1.2925  -1.2124  -1.1605  -1.0516  -0.9521  -0.8781
    -0.8183  -0.7301  -0.6152  -0.5585  -0.4640  -0.3333  -0.2805  -0.1015
    -0.0201   0.1116   0.2075   0.2942   0.4300   0.5238   0.6363   0.7907
     0.9577   1.0034   1.0454   1.1326   1.1724   1.2526   1.3866   1.4299
     1.5465   1.6432   1.6716   1.8196   1.9454   2.0612   2.1478   2.1939
     2.2827   2.3686   2.4275   2.4663   2.6305   2.6679   2.7395   2.8579
     2.8991   2.9329   3.0125   3.0809   3.1540   3.2852   3.3191   3.3577
     3.5183   3.5371   3.5901   3.6432   3.7483   3.8255   3.8909   3.9245
     3.9481   3.9789   4.0598   4.0980   4.1536   4.1654   4.2066   4.2515
     4.2999   4.3673   4.4146   4.4345   4.5149   4.5342   4.5912   4.6486
     4.8039   4.8209   4.8454   4.8931   4.9374   4.9992   5.0208   5.1149
     5.1536   5.2220   5.3699   5.4953   5.6575   5.6904   5.7803   5.8798
     6.0051   6.1344   6.1950   6.2588   6.3572   6.4834   6.6327   6.7733
     6.8650   6.9105   6.9509   7.1003   7.1632   7.4272   7.4456   7.4590
     7.5174   7.6174   7.6734   7.8269   7.8445   7.9116   7.9845   8.0578
     8.0958   8.1737   8.2188   8.2805   8.3344   8.3730

     occupation numbers 
     1.0000   1.0000   1.0000   1.0000   1.0000   1.0000   1.0000   1.0000
     1.0000   1.0000   1.0000   1.0000   1.0000   1.0000   1.0000   1.0000
     1.0000   1.0000   1.0000   1.0000   1.0000   1.0000   1.0000   1.0000
     1.0000   1.0000   1.0000   1.0000   1.0000   1.0000   1.0000   1.0000
     1.0000   1.0000   1.0000   1.0000   1.0000   1.0000   1.0000   1.0000
     1.0000   1.0000   1.0000   1.0000   1.0000   1.0000   1.0000   1.0000
     1.0000   1.0000   1.0000   1.0000   1.0000   1.0000   1.0000   1.0000
     1.0000   1.0000   1.0000   1.0000   1.0000   1.0000   1.0000   1.0000
     1.0000   1.0000   1.0000   1.0000   1.0000   1.0000   1.0000   1.0000
     1.0000   1.0000   1.0000   1.0000   1.0000   1.0000   1.0000   1.0000
     1.0000   1.0000   1.0000   1.0000   1.0000   1.0000   1.0000   1.0000
     1.0000   1.0000   1.0000   1.0000   1.0000   1.0000   1.0000   1.0001
     1.0001   1.0001   1.0002   1.0003   1.0004   1.0004   1.0006   1.0008
     1.0011   1.0017   1.0023   1.0026   1.0042   1.0046   1.0063   1.0086
     1.0178   1.0192   1.0213   1.0257   1.0304   1.0376   1.0404   1.0530
     1.0583   1.0675   1.0818   1.0806   1.0468   1.0343   0.9894   0.9210
     0.8101   0.6753   0.6085   0.5378   0.4324   0.3102   0.1937   0.1148
     0.0782   0.0638   0.0529   0.0250   0.0177   0.0035   0.0031   0.0028
     0.0019   0.0009   0.0006   0.0002   0.0001   0.0001   0.0000   0.0000
     0.0000   0.0000   0.0000   0.0000   0.0000   0.0000

          k = 0.0000 0.0000 0.3333 ( 40358 PWs)   bands (ev):

    -6.0830  -5.6705  -5.2512  -5.1071  -4.9894  -4.8339  -4.7346  -4.5951
    -4.4986  -4.4389  -4.2969  -4.1760  -3.9298  -3.8333  -3.7296  -3.5557
    -3.4833  -3.4137  -3.3714  -3.2225  -3.1284  -3.0463  -2.9361  -2.7406
    -2.4186  -2.3432  -2.2820  -2.1835  -2.0848  -1.9727  -1.8782  -1.8087
    -1.6390  -1.5847  -1.5107  -1.3596  -1.2987  -1.1718  -1.0969  -0.8993
    -0.8284  -0.6799  -0.6337  -0.5032  -0.3863  -0.3050  -0.2049  -0.0487
     0.0783   0.2119   0.2964   0.3638   0.5126   0.5964   0.7353   0.7977
     0.9868   1.0170   1.0773   1.1810   1.2854   1.4283   1.4735   1.5558
     1.6597   1.7476   1.8150   1.9494   2.0464   2.1040   2.1872   2.2117
     2.3267   2.4134   2.4440   2.5236   2.5506   2.6833   2.7328   2.7613
     2.8402   2.9314   2.9573   3.0492   3.1522   3.1808   3.2465   3.2614
     3.3215   3.3743   3.4515   3.5133   3.5621   3.6261   3.6953   3.7704
     3.7967   3.9003   3.9619   3.9860   4.0527   4.1132   4.1915   4.2280
     4.3074   4.3693   4.4311   4.4771   4.5342   4.5861   4.6265   4.6817
     4.7253   4.7623   4.8292   4.8887   4.9560   5.0054   5.1017   5.2093
     5.2573   5.3001   5.4101   5.5370   5.6099   5.6844   5.7730   5.9373
     6.0044   6.1403   6.2148   6.2921   6.4631   6.5295   6.7404   6.8656
     6.9035   6.9349   7.1487   7.2282   7.3461   7.4355   7.4744   7.4917
     7.6162   7.7216   7.7440   7.7779   7.8678   7.8874   7.9659   8.0259
     8.0826   8.1806   8.2439   8.3028   8.3353   8.4230

     occupation numbers 
     1.0000   1.0000   1.0000   1.0000   1.0000   1.0000   1.0000   1.0000
     1.0000   1.0000   1.0000   1.0000   1.0000   1.0000   1.0000   1.0000
     1.0000   1.0000   1.0000   1.0000   1.0000   1.0000   1.0000   1.0000
     1.0000   1.0000   1.0000   1.0000   1.0000   1.0000   1.0000   1.0000
     1.0000   1.0000   1.0000   1.0000   1.0000   1.0000   1.0000   1.0000
     1.0000   1.0000   1.0000   1.0000   1.0000   1.0000   1.0000   1.0000
     1.0000   1.0000   1.0000   1.0000   1.0000   1.0000   1.0000   1.0000
     1.0000   1.0000   1.0000   1.0000   1.0000   1.0000   1.0000   1.0000
     1.0000   1.0000   1.0000   1.0000   1.0000   1.0000   1.0000   1.0000
     1.0000   1.0000   1.0000   1.0000   1.0000   1.0000   1.0000   1.0000
     1.0000   1.0000   1.0000   1.0000   1.0000   1.0000   1.0000   1.0000
     1.0000   1.0000   1.0000   1.0000   1.0000   1.0000   1.0000   1.0000
     1.0000   1.0001   1.0001   1.0001   1.0002   1.0003   1.0005   1.0007
     1.0011   1.0017   1.0025   1.0033   1.0046   1.0062   1.0076   1.0101
     1.0125   1.0148   1.0199   1.0253   1.0325   1.0384   1.0512   1.0658
     1.0718   1.0764   1.0832   1.0759   1.0613   1.0368   0.9936   0.8732
     0.8108   0.6687   0.5864   0.5015   0.3285   0.2707   0.1307   0.0780
     0.0659   0.0570   0.0192   0.0122   0.0059   0.0033   0.0025   0.0023
     0.0009   0.0004   0.0003   0.0003   0.0001   0.0001   0.0001   0.0000
     0.0000   0.0000   0.0000   0.0000   0.0000   0.0000

          k = 0.0000 0.3333 0.3333 ( 40312 PWs)   bands (ev):

    -5.9837  -5.6690  -5.4873  -5.1930  -4.9804  -4.8333  -4.7193  -4.5684
    -4.4661  -4.4146  -4.2096  -4.0640  -4.0127  -3.8405  -3.7685  -3.6253
    -3.4680  -3.2459  -3.2035  -3.1049  -3.0033  -2.9135  -2.8575  -2.8039
    -2.5857  -2.4436  -2.3343  -2.2361  -2.1501  -2.0837  -1.9612  -1.7695
    -1.7451  -1.6552  -1.5906  -1.4707  -1.4552  -1.2320  -1.1651  -0.9608
    -0.8620  -0.7495  -0.5641  -0.4735  -0.3002  -0.2107  -0.0550  -0.0005
     0.1248   0.2428   0.3323   0.4903   0.5777   0.6142   0.7188   0.8605
     1.0318   1.0780   1.1327   1.2032   1.3384   1.3638   1.5131   1.5566
     1.6899   1.7343   1.8182   1.9798   2.0852   2.1124   2.2196   2.2949
     2.3721   2.4111   2.5057   2.5570   2.6136   2.7050   2.7230   2.7666
     2.8512   2.8827   2.9793   3.0502   3.1094   3.1489   3.2641   3.2988
     3.3578   3.4322   3.4639   3.4934   3.5536   3.6027   3.6275   3.7192
     3.7913   3.8516   3.9003   3.9775   4.0288   4.1104   4.1421   4.2050
     4.2929   4.3130   4.3502   4.3996   4.4488   4.5392   4.5645   4.6337
     4.6502   4.6787   4.7264   4.8121   4.8686   4.9509   5.0351   5.0753
     5.1798   5.3082   5.4079   5.4872   5.5490   5.6486   5.7956   5.9145
     6.0550   6.1513   6.2803   6.3741   6.4308   6.5607   6.7090   6.8307
     6.9812   7.0229   7.1324   7.2013   7.2736   7.3742   7.4570   7.5870
     7.6436   7.6882   7.7547   7.7986   7.8807   7.9906   8.0457   8.1048
     8.1250   8.2180   8.2886   8.3269   8.3573   8.4275

     occupation numbers 
     1.0000   1.0000   1.0000   1.0000   1.0000   1.0000   1.0000   1.0000
     1.0000   1.0000   1.0000   1.0000   1.0000   1.0000   1.0000   1.0000
     1.0000   1.0000   1.0000   1.0000   1.0000   1.0000   1.0000   1.0000
     1.0000   1.0000   1.0000   1.0000   1.0000   1.0000   1.0000   1.0000
     1.0000   1.0000   1.0000   1.0000   1.0000   1.0000   1.0000   1.0000
     1.0000   1.0000   1.0000   1.0000   1.0000   1.0000   1.0000   1.0000
     1.0000   1.0000   1.0000   1.0000   1.0000   1.0000   1.0000   1.0000
     1.0000   1.0000   1.0000   1.0000   1.0000   1.0000   1.0000   1.0000
     1.0000   1.0000   1.0000   1.0000   1.0000   1.0000   1.0000   1.0000
     1.0000   1.0000   1.0000   1.0000   1.0000   1.0000   1.0000   1.0000
     1.0000   1.0000   1.0000   1.0000   1.0000   1.0000   1.0000   1.0000
     1.0000   1.0000   1.0000   1.0000   1.0000   1.0000   1.0000   1.0000
     1.0000   1.0000   1.0001   1.0001   1.0001   1.0003   1.0004   1.0006
     1.0010   1.0012   1.0015   1.0021   1.0028   1.0048   1.0055   1.0079
     1.0086   1.0100   1.0126   1.0185   1.0234   1.0319   1.0422   1.0476
     1.0619   1.0772   1.0831   1.0812   1.0741   1.0499   0.9801   0.8928
     0.7599   0.6567   0.5143   0.4150   0.3589   0.2457   0.1473   0.0906
     0.0458   0.0373   0.0210   0.0143   0.0093   0.0050   0.0029   0.0011
     0.0007   0.0005   0.0003   0.0002   0.0001   0.0000   0.0000   0.0000
     0.0000   0.0000   0.0000   0.0000   0.0000   0.0000

          k = 0.3333 0.3333 0.3333 ( 40314 PWs)   bands (ev):

    -5.9006  -5.5998  -5.5055  -5.3333  -5.1059  -4.9787  -4.9186  -4.7026
    -4.3053  -4.1598  -3.9720  -3.8879  -3.8300  -3.7477  -3.6411  -3.5665
    -3.5070  -3.4775  -3.2807  -3.1804  -3.1131  -2.8756  -2.7982  -2.6963
    -2.6443  -2.4817  -2.4416  -2.3121  -2.2531  -2.1051  -2.0851  -1.9277
    -1.8873  -1.7416  -1.5647  -1.3341  -1.3098  -1.2233  -1.0535  -0.9104
    -0.8280  -0.7728  -0.5792  -0.4553  -0.3416  -0.2946  -0.0996  -0.0717
     0.0982   0.1822   0.2848   0.4812   0.5724   0.7107   0.7569   0.9870
     1.0287   1.1001   1.1863   1.2555   1.4487   1.4843   1.5843   1.6538
     1.7218   1.7816   1.8813   1.9841   2.0377   2.1253   2.2245   2.2880
     2.3691   2.4505   2.4962   2.5582   2.6090   2.7141   2.7601   2.8352
     2.9268   2.9558   3.0039   3.0498   3.1620   3.2131   3.2627   3.3023
     3.3513   3.4116   3.4596   3.5091   3.5233   3.5596   3.6391   3.6688
     3.7266   3.8193   3.8843   3.9545   4.0066   4.0557   4.0925   4.1348
     4.1674   4.2403   4.3189   4.3747   4.4242   4.4607   4.5001   4.5336
     4.5688   4.6312   4.7011   4.7963   4.8393   4.8685   5.0121   5.0693
     5.1876   5.2076   5.4013   5.4682   5.5894   5.6921   5.7685   5.8870
     5.9360   6.0957   6.2064   6.3188   6.4010   6.5653   6.7066   6.7718
     6.8990   7.0644   7.1217   7.2465   7.3146   7.3445   7.4181   7.5357
     7.5892   7.6760   7.7679   7.8087   7.9200   7.9489   8.0843   8.1216
     8.1756   8.2164   8.3472   8.3808   8.4249   8.4742

     occupation numbers 
     1.0000   1.0000   1.0000   1.0000   1.0000   1.0000   1.0000   1.0000
     1.0000   1.0000   1.0000   1.0000   1.0000   1.0000   1.0000   1.0000
     1.0000   1.0000   1.0000   1.0000   1.0000   1.0000   1.0000   1.0000
     1.0000   1.0000   1.0000   1.0000   1.0000   1.0000   1.0000   1.0000
     1.0000   1.0000   1.0000   1.0000   1.0000   1.0000   1.0000   1.0000
     1.0000   1.0000   1.0000   1.0000   1.0000   1.0000   1.0000   1.0000
     1.0000   1.0000   1.0000   1.0000   1.0000   1.0000   1.0000   1.0000
     1.0000   1.0000   1.0000   1.0000   1.0000   1.0000   1.0000   1.0000
     1.0000   1.0000   1.0000   1.0000   1.0000   1.0000   1.0000   1.0000
     1.0000   1.0000   1.0000   1.0000   1.0000   1.0000   1.0000   1.0000
     1.0000   1.0000   1.0000   1.0000   1.0000   1.0000   1.0000   1.0000
     1.0000   1.0000   1.0000   1.0000   1.0000   1.0000   1.0000   1.0000
     1.0000   1.0000   1.0000   1.0001   1.0001   1.0002   1.0002   1.0003
     1.0004   1.0007   1.0012   1.0018   1.0024   1.0030   1.0038   1.0046
     1.0056   1.0078   1.0111   1.0173   1.0207   1.0234   1.0392   1.0467
     1.0630   1.0656   1.0830   1.0823   1.0663   1.0336   0.9961   0.9154
     0.8744   0.7170   0.5958   0.4727   0.3879   0.2422   0.1486   0.1155
     0.0672   0.0302   0.0223   0.0110   0.0072   0.0060   0.0037   0.0017
     0.0011   0.0006   0.0003   0.0002   0.0001   0.0001   0.0000   0.0000
     0.0000   0.0000   0.0000   0.0000   0.0000   0.0000

          k = 0.3333 0.0000 0.0000 ( 40358 PWs)   bands (ev):

    -6.0789  -5.6869  -5.2629  -5.1093  -4.9581  -4.8139  -4.7215  -4.6068
    -4.5331  -4.4078  -4.2433  -4.1365  -3.9319  -3.8774  -3.7715  -3.6668
    -3.6127  -3.4584  -3.3182  -3.1699  -3.0975  -2.9404  -2.8482  -2.6907
    -2.5532  -2.3658  -2.2366  -2.1799  -2.1293  -2.0381  -1.8801  -1.7996
    -1.6774  -1.5019  -1.4383  -1.3673  -1.2660  -1.0873  -1.0216  -0.8639
    -0.8365  -0.7547  -0.6144  -0.4884  -0.4137  -0.2644  -0.1875  -0.0938
    -0.0165   0.0693   0.1833   0.3237   0.4830   0.5736   0.7565   0.8841
     0.9437   1.0436   1.1098   1.1727   1.2854   1.3951   1.4509   1.6113
     1.6698   1.7300   1.8715   1.9241   2.0082   2.1291   2.2168   2.2603
     2.3019   2.3728   2.4273   2.4752   2.5749   2.6478   2.7652   2.8172
     2.8340   2.9094   3.0143   3.1239   3.1463   3.2149   3.2559   3.3231
     3.3696   3.4653   3.5143   3.5644   3.5962   3.6583   3.7449   3.8066
     3.8216   3.8913   3.9711   4.0161   4.0600   4.1294   4.1497   4.1953
     4.2819   4.3066   4.3945   4.4276   4.4765   4.5539   4.5695   4.6687
     4.6904   4.7746   4.8226   4.9036   4.9520   5.0123   5.0237   5.1284
     5.1926   5.2795   5.3777   5.4464   5.4767   5.6903   5.8954   5.9713
     6.0058   6.1664   6.2135   6.2664   6.4860   6.6284   6.6780   6.7702
     6.8832   7.0084   7.1063   7.1923   7.2510   7.3438   7.4499   7.5504
     7.6118   7.6854   7.7468   7.8069   7.8374   7.9720   8.0184   8.0501
     8.1094   8.2006   8.2477   8.3293   8.3598   8.4134

     occupation numbers 
     1.0000   1.0000   1.0000   1.0000   1.0000   1.0000   1.0000   1.0000
     1.0000   1.0000   1.0000   1.0000   1.0000   1.0000   1.0000   1.0000
     1.0000   1.0000   1.0000   1.0000   1.0000   1.0000   1.0000   1.0000
     1.0000   1.0000   1.0000   1.0000   1.0000   1.0000   1.0000   1.0000
     1.0000   1.0000   1.0000   1.0000   1.0000   1.0000   1.0000   1.0000
     1.0000   1.0000   1.0000   1.0000   1.0000   1.0000   1.0000   1.0000
     1.0000   1.0000   1.0000   1.0000   1.0000   1.0000   1.0000   1.0000
     1.0000   1.0000   1.0000   1.0000   1.0000   1.0000   1.0000   1.0000
     1.0000   1.0000   1.0000   1.0000   1.0000   1.0000   1.0000   1.0000
     1.0000   1.0000   1.0000   1.0000   1.0000   1.0000   1.0000   1.0000
     1.0000   1.0000   1.0000   1.0000   1.0000   1.0000   1.0000   1.0000
     1.0000   1.0000   1.0000   1.0000   1.0000   1.0000   1.0000   1.0000
     1.0000   1.0000   1.0001   1.0001   1.0002   1.0003   1.0004   1.0005
     1.0010   1.0011   1.0020   1.0025   1.0033   1.0052   1.0056   1.0095
     1.0106   1.0157   1.0193   1.0268   1.0320   1.0393   1.0407   1.0549
     1.0636   1.0743   1.0822   1.0831   1.0819   1.0344   0.9086   0.8424
     0.8094   0.6401   0.5879   0.5295   0.3079   0.1966   0.1650   0.1162
     0.0722   0.0401   0.0242   0.0150   0.0107   0.0060   0.0030   0.0015
     0.0009   0.0005   0.0003   0.0002   0.0002   0.0000   0.0000   0.0000
     0.0000   0.0000   0.0000   0.0000   0.0000   0.0000

          k = 0.0000 0.3333 0.0000 ( 40358 PWs)   bands (ev):

    -6.0697  -5.7168  -5.1855  -5.0648  -4.9953  -4.9302  -4.7238  -4.6553
    -4.5298  -4.3515  -4.2346  -4.0937  -3.9868  -3.8114  -3.6969  -3.6366
    -3.5285  -3.5031  -3.3512  -3.2272  -3.1255  -3.0026  -2.9215  -2.7476
    -2.5299  -2.3617  -2.2738  -2.1394  -2.0646  -1.9867  -1.8784  -1.7188
    -1.6385  -1.5090  -1.4336  -1.3630  -1.2237  -1.1217  -1.0386  -0.9610
    -0.8799  -0.7273  -0.6386  -0.6061  -0.4104  -0.3173  -0.2084  -0.1339
     0.0718   0.1274   0.2351   0.3665   0.5496   0.6169   0.7943   0.8564
     0.9153   1.0045   1.1261   1.2275   1.2704   1.3727   1.4555   1.5483
     1.6208   1.7534   1.8676   1.9766   2.0270   2.0890   2.1279   2.1973
     2.3018   2.4227   2.4845   2.5620   2.6419   2.6941   2.7566   2.8338
     2.8703   2.9346   3.0043   3.0470   3.0985   3.1911   3.2795   3.2993
     3.3812   3.4038   3.4684   3.5608   3.6214   3.6369   3.7273   3.7843
     3.8469   3.9085   3.9573   3.9998   4.0376   4.1070   4.1704   4.2151
     4.2621   4.2971   4.3814   4.3967   4.4663   4.4839   4.5499   4.6327
     4.7116   4.7802   4.8129   4.8592   4.8951   5.0064   5.0837   5.1190
     5.2530   5.3695   5.4081   5.4908   5.5541   5.7340   5.8256   6.0047
     6.0599   6.1889   6.2303   6.3590   6.4653   6.6057   6.6540   6.8117
     6.9595   7.0376   7.1060   7.1531   7.2400   7.4058   7.4550   7.4897
     7.5605   7.6019   7.6450   7.7783   7.8539   7.8764   7.9756   8.0353
     8.1233   8.1580   8.2356   8.2926   8.3578   8.4255

     occupation numbers 
     1.0000   1.0000   1.0000   1.0000   1.0000   1.0000   1.0000   1.0000
     1.0000   1.0000   1.0000   1.0000   1.0000   1.0000   1.0000   1.0000
     1.0000   1.0000   1.0000   1.0000   1.0000   1.0000   1.0000   1.0000
     1.0000   1.0000   1.0000   1.0000   1.0000   1.0000   1.0000   1.0000
     1.0000   1.0000   1.0000   1.0000   1.0000   1.0000   1.0000   1.0000
     1.0000   1.0000   1.0000   1.0000   1.0000   1.0000   1.0000   1.0000
     1.0000   1.0000   1.0000   1.0000   1.0000   1.0000   1.0000   1.0000
     1.0000   1.0000   1.0000   1.0000   1.0000   1.0000   1.0000   1.0000
     1.0000   1.0000   1.0000   1.0000   1.0000   1.0000   1.0000   1.0000
     1.0000   1.0000   1.0000   1.0000   1.0000   1.0000   1.0000   1.0000
     1.0000   1.0000   1.0000   1.0000   1.0000   1.0000   1.0000   1.0000
     1.0000   1.0000   1.0000   1.0000   1.0000   1.0000   1.0000   1.0000
     1.0000   1.0001   1.0001   1.0001   1.0002   1.0003   1.0004   1.0006
     1.0008   1.0011   1.0019   1.0020   1.0031   1.0035   1.0051   1.0079
     1.0117   1.0161   1.0185   1.0225   1.0259   1.0385   1.0487   1.0536
     1.0713   1.0818   1.0831   1.0809   1.0733   1.0145   0.9606   0.8106
     0.7549   0.6151   0.5693   0.4305   0.3265   0.2122   0.1798   0.0981
     0.0508   0.0346   0.0242   0.0187   0.0114   0.0040   0.0029   0.0023
     0.0014   0.0010   0.0007   0.0003   0.0001   0.0001   0.0000   0.0000
     0.0000   0.0000   0.0000   0.0000   0.0000   0.0000

          k = 0.0000-0.3333 0.3333 ( 40312 PWs)   bands (ev):

    -5.9771  -5.6940  -5.4747  -5.1749  -4.9589  -4.8824  -4.7317  -4.5680
    -4.4453  -4.2754  -4.2558  -4.1202  -4.0198  -3.9292  -3.8539  -3.5421
    -3.3929  -3.2630  -3.1792  -3.0812  -3.0368  -2.9334  -2.8039  -2.6547
    -2.5738  -2.5327  -2.4373  -2.3023  -2.1126  -2.0901  -2.0236  -1.9608
    -1.6569  -1.5632  -1.4914  -1.4337  -1.3739  -1.2382  -1.1347  -0.9784
    -0.8960  -0.7560  -0.6516  -0.4935  -0.3309  -0.1845  -0.1064   0.0439
     0.1019   0.2041   0.3835   0.4670   0.5238   0.6552   0.7981   0.8740
     0.9511   1.0956   1.1024   1.2717   1.3455   1.4557   1.5146   1.6142
     1.7128   1.7616   1.8613   1.9351   2.0352   2.0762   2.1596   2.2785
     2.3114   2.3961   2.4483   2.4989   2.5923   2.7375   2.7569   2.8088
     2.8529   2.9716   3.0107   3.0289   3.1271   3.1500   3.2202   3.2603
     3.3414   3.3764   3.4616   3.5513   3.6045   3.6215   3.6467   3.7653
     3.7961   3.8632   3.8916   3.9452   3.9906   4.0872   4.1728   4.1898
     4.2290   4.3073   4.3975   4.4079   4.4440   4.5027   4.5287   4.5698
     4.6734   4.6994   4.7639   4.8024   4.8781   4.9435   5.0815   5.1121
     5.1700   5.2530   5.3762   5.5221   5.6126   5.6763   5.8113   5.9622
     6.0475   6.1625   6.2405   6.3479   6.4832   6.5109   6.6158   6.8648
     6.9094   7.0352   7.1539   7.2334   7.2567   7.3820   7.4998   7.5618
     7.6346   7.6933   7.7595   7.8220   7.8690   7.9884   8.0110   8.0819
     8.1773   8.2281   8.2631   8.3533   8.4004   8.4524

     occupation numbers 
     1.0000   1.0000   1.0000   1.0000   1.0000   1.0000   1.0000   1.0000
     1.0000   1.0000   1.0000   1.0000   1.0000   1.0000   1.0000   1.0000
     1.0000   1.0000   1.0000   1.0000   1.0000   1.0000   1.0000   1.0000
     1.0000   1.0000   1.0000   1.0000   1.0000   1.0000   1.0000   1.0000
     1.0000   1.0000   1.0000   1.0000   1.0000   1.0000   1.0000   1.0000
     1.0000   1.0000   1.0000   1.0000   1.0000   1.0000   1.0000   1.0000
     1.0000   1.0000   1.0000   1.0000   1.0000   1.0000   1.0000   1.0000
     1.0000   1.0000   1.0000   1.0000   1.0000   1.0000   1.0000   1.0000
     1.0000   1.0000   1.0000   1.0000   1.0000   1.0000   1.0000   1.0000
     1.0000   1.0000   1.0000   1.0000   1.0000   1.0000   1.0000   1.0000
     1.0000   1.0000   1.0000   1.0000   1.0000   1.0000   1.0000   1.0000
     1.0000   1.0000   1.0000   1.0000   1.0000   1.0000   1.0000   1.0000
     1.0000   1.0000   1.0000   1.0001   1.0001   1.0002   1.0004   1.0005
     1.0007   1.0011   1.0020   1.0022   1.0027   1.0039   1.0045   1.0056
     1.0097   1.0110   1.0149   1.0177   1.0243   1.0311   1.0484   1.0526
     1.0606   1.0713   1.0821   1.0779   1.0606   1.0399   0.9701   0.8508
     0.7676   0.6443   0.5580   0.4420   0.3104   0.2862   0.2052   0.0783
     0.0641   0.0350   0.0187   0.0118   0.0103   0.0047   0.0021   0.0014
     0.0008   0.0005   0.0003   0.0002   0.0001   0.0000   0.0000   0.0000
     0.0000   0.0000   0.0000   0.0000   0.0000   0.0000

          k = 0.3333 0.0000-0.3333 ( 40312 PWs)   bands (ev):

    -5.9888  -5.6574  -5.5070  -5.1713  -5.0207  -4.7784  -4.6838  -4.5476
    -4.4798  -4.3575  -4.2873  -4.1426  -3.9985  -3.9041  -3.8517  -3.5423
    -3.4168  -3.2692  -3.1401  -3.0695  -3.0113  -2.9289  -2.8376  -2.7249
    -2.6544  -2.4913  -2.3888  -2.2809  -2.0931  -2.0302  -1.9439  -1.8652
    -1.7715  -1.6960  -1.5679  -1.4242  -1.2496  -1.1457  -1.1004  -0.9793
    -0.9533  -0.7873  -0.6554  -0.4438  -0.3856  -0.2805  -0.1806  -0.0321
     0.1120   0.2285   0.4143   0.4754   0.5896   0.6056   0.8050   0.9147
     1.0114   1.0742   1.1349   1.2981   1.3600   1.4361   1.5146   1.6116
     1.7124   1.8160   1.8522   1.9418   2.0895   2.1195   2.1662   2.2477
     2.3274   2.3588   2.4441   2.5524   2.6060   2.6631   2.7351   2.7642
     2.8345   2.8948   2.9544   3.0131   3.1138   3.1538   3.1942   3.2462
     3.3323   3.3908   3.4577   3.5036   3.5848   3.6544   3.6881   3.7099
     3.7808   3.8250   3.8747   3.9477   4.0224   4.0733   4.1493   4.2038
     4.2475   4.3206   4.3591   4.4115   4.4545   4.5534   4.6076   4.6290
     4.6986   4.7843   4.7917   4.8443   4.9319   4.9652   5.0760   5.1450
     5.2202   5.3482   5.4031   5.5052   5.5547   5.6614   5.7119   5.8262
     6.0157   6.1163   6.1944   6.3601   6.4208   6.5861   6.7650   6.8468
     6.9276   7.0549   7.1104   7.2030   7.3266   7.4096   7.4765   7.5286
     7.6432   7.7275   7.7567   7.8509   7.9205   7.9684   8.0039   8.0418
     8.1469   8.1913   8.2490   8.2833   8.3540   8.3917

     occupation numbers 
     1.0000   1.0000   1.0000   1.0000   1.0000   1.0000   1.0000   1.0000
     1.0000   1.0000   1.0000   1.0000   1.0000   1.0000   1.0000   1.0000
     1.0000   1.0000   1.0000   1.0000   1.0000   1.0000   1.0000   1.0000
     1.0000   1.0000   1.0000   1.0000   1.0000   1.0000   1.0000   1.0000
     1.0000   1.0000   1.0000   1.0000   1.0000   1.0000   1.0000   1.0000
     1.0000   1.0000   1.0000   1.0000   1.0000   1.0000   1.0000   1.0000
     1.0000   1.0000   1.0000   1.0000   1.0000   1.0000   1.0000   1.0000
     1.0000   1.0000   1.0000   1.0000   1.0000   1.0000   1.0000   1.0000
     1.0000   1.0000   1.0000   1.0000   1.0000   1.0000   1.0000   1.0000
     1.0000   1.0000   1.0000   1.0000   1.0000   1.0000   1.0000   1.0000
     1.0000   1.0000   1.0000   1.0000   1.0000   1.0000   1.0000   1.0000
     1.0000   1.0000   1.0000   1.0000   1.0000   1.0000   1.0000   1.0000
     1.0000   1.0000   1.0000   1.0001   1.0001   1.0002   1.0004   1.0006
     1.0008   1.0012   1.0016   1.0022   1.0029   1.0052   1.0069   1.0077
     1.0110   1.0164   1.0169   1.0212   1.0298   1.0335   1.0477   1.0571
     1.0673   1.0805   1.0830   1.0797   1.0732   1.0454   1.0250   0.9602
     0.7997   0.6949   0.6091   0.4294   0.3685   0.2264   0.1186   0.0846
     0.0590   0.0317   0.0237   0.0141   0.0067   0.0039   0.0025   0.0017
     0.0007   0.0004   0.0003   0.0001   0.0001   0.0001   0.0000   0.0000
     0.0000   0.0000   0.0000   0.0000   0.0000   0.0000

          k =-0.3333 0.0000-0.3333 ( 40312 PWs)   bands (ev):

    -5.9913  -5.6566  -5.4883  -5.2171  -4.9586  -4.8064  -4.7068  -4.5918
    -4.4555  -4.3321  -4.2635  -4.1245  -4.0628  -3.8777  -3.7475  -3.6683
    -3.4061  -3.2664  -3.1310  -3.0639  -3.0043  -2.8802  -2.8164  -2.7108
    -2.6389  -2.5736  -2.4508  -2.2929  -2.1611  -2.0753  -1.9733  -1.7829
    -1.6809  -1.6376  -1.5407  -1.4128  -1.2651  -1.2088  -1.0759  -0.9943
    -0.8908  -0.8040  -0.6908  -0.4711  -0.4201  -0.2504  -0.0943  -0.0084
     0.0728   0.2469   0.3543   0.4540   0.5895   0.6228   0.7917   0.8651
     0.9396   1.0841   1.1526   1.3034   1.3548   1.4942   1.5300   1.5903
     1.7518   1.8110   1.9129   2.0085   2.0449   2.0833   2.1223   2.2007
     2.3362   2.3925   2.4494   2.4961   2.5853   2.6428   2.7150   2.8109
     2.8613   2.9114   3.0059   3.0604   3.1180   3.1394   3.2399   3.2594
     3.2901   3.3639   3.4284   3.4752   3.5671   3.6070   3.6943   3.7699
     3.8161   3.8699   3.9549   3.9853   4.0302   4.1011   4.1240   4.1914
     4.2493   4.3230   4.3532   4.4251   4.4571   4.4919   4.5690   4.6055
     4.6218   4.7070   4.7635   4.8616   4.9031   4.9659   5.0693   5.1370
     5.2113   5.3105   5.4215   5.5422   5.5704   5.7122   5.7938   5.9122
     5.9916   6.1039   6.2548   6.3534   6.4650   6.5041   6.6565   6.7220
     6.8860   7.0098   7.1220   7.2790   7.3455   7.4304   7.4617   7.4924
     7.6286   7.6659   7.7465   7.8352   7.8679   7.9341   8.0105   8.0994
     8.1889   8.2042   8.3059   8.3343   8.4144   8.4633

     occupation numbers 
     1.0000   1.0000   1.0000   1.0000   1.0000   1.0000   1.0000   1.0000
     1.0000   1.0000   1.0000   1.0000   1.0000   1.0000   1.0000   1.0000
     1.0000   1.0000   1.0000   1.0000   1.0000   1.0000   1.0000   1.0000
     1.0000   1.0000   1.0000   1.0000   1.0000   1.0000   1.0000   1.0000
     1.0000   1.0000   1.0000   1.0000   1.0000   1.0000   1.0000   1.0000
     1.0000   1.0000   1.0000   1.0000   1.0000   1.0000   1.0000   1.0000
     1.0000   1.0000   1.0000   1.0000   1.0000   1.0000   1.0000   1.0000
     1.0000   1.0000   1.0000   1.0000   1.0000   1.0000   1.0000   1.0000
     1.0000   1.0000   1.0000   1.0000   1.0000   1.0000   1.0000   1.0000
     1.0000   1.0000   1.0000   1.0000   1.0000   1.0000   1.0000   1.0000
     1.0000   1.0000   1.0000   1.0000   1.0000   1.0000   1.0000   1.0000
     1.0000   1.0000   1.0000   1.0000   1.0000   1.0000   1.0000   1.0000
     1.0000   1.0000   1.0001   1.0001   1.0001   1.0003   1.0003   1.0005
     1.0008   1.0013   1.0015   1.0024   1.0030   1.0036   1.0056   1.0068
     1.0075   1.0114   1.0149   1.0227   1.0267   1.0336   1.0467   1.0560
     1.0661   1.0774   1.0833   1.0752   1.0703   1.0249   0.9812   0.8948
     0.8232   0.7082   0.5423   0.4363   0.3268   0.2921   0.1783   0.1402
     0.0713   0.0398   0.0222   0.0090   0.0060   0.0034   0.0028   0.0022
     0.0008   0.0006   0.0003   0.0002   0.0001   0.0001   0.0000   0.0000
     0.0000   0.0000   0.0000   0.0000   0.0000   0.0000

          k = 0.3333-0.3333 0.0000 ( 40312 PWs)   bands (ev):

    -5.9706  -5.7101  -5.4644  -5.2130  -5.0077  -4.8029  -4.6407  -4.5587
    -4.4509  -4.3039  -4.2031  -4.1558  -4.0507  -3.9755  -3.8777  -3.5137
    -3.4260  -3.3229  -3.2493  -3.0935  -2.9875  -2.8682  -2.8079  -2.6899
    -2.6389  -2.4863  -2.3125  -2.2552  -2.1708  -2.0943  -1.9881  -1.9248
    -1.7529  -1.5593  -1.4703  -1.4296  -1.2487  -1.1141  -1.0717  -0.9648
    -0.9186  -0.7567  -0.6981  -0.5083  -0.4692  -0.2824  -0.1991  -0.0797
     0.1294   0.2446   0.3541   0.4435   0.5175   0.6294   0.7695   0.8352
     0.9474   1.0605   1.1639   1.2644   1.3865   1.4964   1.5642   1.6945
     1.7444   1.8483   1.9300   1.9912   2.0312   2.0821   2.1898   2.2381
     2.3371   2.3823   2.4663   2.5114   2.5680   2.6567   2.6966   2.7436
     2.8405   2.9065   2.9973   3.0424   3.1165   3.1901   3.2473   3.3541
     3.3724   3.4255   3.4774   3.5146   3.6013   3.6255   3.7299   3.7904
     3.8399   3.9001   3.9238   3.9616   4.0468   4.0906   4.1208   4.1540
     4.2206   4.2693   4.3148   4.3400   4.4410   4.4897   4.5215   4.5661
     4.6027   4.6598   4.7048   4.8040   4.8894   4.9508   5.0655   5.0848
     5.1611   5.2814   5.3941   5.4737   5.5659   5.6989   5.8339   5.9311
     6.0084   6.1426   6.3137   6.4159   6.5056   6.5832   6.7127   6.8760
     6.9249   7.0308   7.0931   7.2036   7.2741   7.3592   7.4499   7.5121
     7.5865   7.7227   7.7472   7.8479   7.8797   7.9077   8.0056   8.1003
     8.1380   8.2253   8.2607   8.3480   8.3772   8.3993

     occupation numbers 
     1.0000   1.0000   1.0000   1.0000   1.0000   1.0000   1.0000   1.0000
     1.0000   1.0000   1.0000   1.0000   1.0000   1.0000   1.0000   1.0000
     1.0000   1.0000   1.0000   1.0000   1.0000   1.0000   1.0000   1.0000
     1.0000   1.0000   1.0000   1.0000   1.0000   1.0000   1.0000   1.0000
     1.0000   1.0000   1.0000   1.0000   1.0000   1.0000   1.0000   1.0000
     1.0000   1.0000   1.0000   1.0000   1.0000   1.0000   1.0000   1.0000
     1.0000   1.0000   1.0000   1.0000   1.0000   1.0000   1.0000   1.0000
     1.0000   1.0000   1.0000   1.0000   1.0000   1.0000   1.0000   1.0000
     1.0000   1.0000   1.0000   1.0000   1.0000   1.0000   1.0000   1.0000
     1.0000   1.0000   1.0000   1.0000   1.0000   1.0000   1.0000   1.0000
     1.0000   1.0000   1.0000   1.0000   1.0000   1.0000   1.0000   1.0000
     1.0000   1.0000   1.0000   1.0000   1.0000   1.0000   1.0000   1.0000
     1.0000   1.0001   1.0001   1.0001   1.0002   1.0002   1.0003   1.0004
     1.0006   1.0009   1.0012   1.0014   1.0027   1.0036   1.0043   1.0055
     1.0067   1.0091   1.0113   1.0178   1.0254   1.0319   1.0462   1.0489
     1.0594   1.0745   1.0828   1.0821   1.0712   1.0307   0.9549   0.8786
     0.8070   0.6663   0.4783   0.3732   0.2908   0.2286   0.1452   0.0745
     0.0598   0.0358   0.0259   0.0141   0.0093   0.0055   0.0030   0.0020
     0.0011   0.0004   0.0003   0.0001   0.0001   0.0001   0.0000   0.0000
     0.0000   0.0000   0.0000   0.0000   0.0000   0.0000

          k =-0.3333-0.3333 0.0000 ( 40312 PWs)   bands (ev):

    -5.9793  -5.6423  -5.5565  -5.1742  -4.9988  -4.8257  -4.6511  -4.5097
    -4.4653  -4.3341  -4.2670  -4.1173  -4.0242  -3.9517  -3.7524  -3.6374
    -3.4978  -3.3491  -3.1977  -3.0884  -2.9577  -2.8681  -2.7844  -2.7246
    -2.6673  -2.4585  -2.3434  -2.2928  -2.1852  -2.1100  -1.9051  -1.7758
    -1.7057  -1.5572  -1.5339  -1.4407  -1.3138  -1.1340  -1.0472  -1.0216
    -0.8973  -0.8384  -0.6938  -0.5119  -0.4305  -0.2670  -0.1941  -0.1129
     0.0779   0.2520   0.3255   0.5001   0.5957   0.6320   0.7631   0.8770
     1.0329   1.1264   1.1899   1.2518   1.3438   1.4223   1.5862   1.6152
     1.7522   1.8328   1.8862   1.9432   2.0128   2.0728   2.1674   2.2102
     2.3004   2.4039   2.4680   2.5210   2.5831   2.6827   2.7156   2.7994
     2.8655   2.9421   2.9971   3.0958   3.1152   3.1613   3.2458   3.2746
     3.3680   3.4228   3.5028   3.5416   3.5791   3.6486   3.7038   3.7907
     3.8414   3.8687   3.9083   3.9634   4.0165   4.0536   4.1068   4.1908
     4.2306   4.2989   4.3132   4.3943   4.4303   4.4600   4.5676   4.5984
     4.6335   4.7245   4.7667   4.8010   4.8647   4.9432   5.0097   5.1368
     5.1484   5.2743   5.3632   5.4714   5.5570   5.6450   5.7547   5.9039
     6.0332   6.1620   6.2701   6.3253   6.5057   6.6496   6.7288   6.8153
     6.9055   6.9824   7.0818   7.2376   7.3106   7.3938   7.4598   7.5876
     7.6207   7.6926   7.7114   7.8493   7.9222   7.9517   8.0334   8.0908
     8.1472   8.1858   8.2732   8.3313   8.3418   8.4027

     occupation numbers 
     1.0000   1.0000   1.0000   1.0000   1.0000   1.0000   1.0000   1.0000
     1.0000   1.0000   1.0000   1.0000   1.0000   1.0000   1.0000   1.0000
     1.0000   1.0000   1.0000   1.0000   1.0000   1.0000   1.0000   1.0000
     1.0000   1.0000   1.0000   1.0000   1.0000   1.0000   1.0000   1.0000
     1.0000   1.0000   1.0000   1.0000   1.0000   1.0000   1.0000   1.0000
     1.0000   1.0000   1.0000   1.0000   1.0000   1.0000   1.0000   1.0000
     1.0000   1.0000   1.0000   1.0000   1.0000   1.0000   1.0000   1.0000
     1.0000   1.0000   1.0000   1.0000   1.0000   1.0000   1.0000   1.0000
     1.0000   1.0000   1.0000   1.0000   1.0000   1.0000   1.0000   1.0000
     1.0000   1.0000   1.0000   1.0000   1.0000   1.0000   1.0000   1.0000
     1.0000   1.0000   1.0000   1.0000   1.0000   1.0000   1.0000   1.0000
     1.0000   1.0000   1.0000   1.0000   1.0000   1.0000   1.0000   1.0000
     1.0000   1.0000   1.0001   1.0001   1.0001   1.0002   1.0003   1.0005
     1.0007   1.0011   1.0012   1.0020   1.0025   1.0030   1.0056   1.0066
     1.0079   1.0124   1.0151   1.0176   1.0230   1.0310   1.0389   1.0560
     1.0576   1.0737   1.0814   1.0822   1.0728   1.0510   1.0038   0.9017
     0.7822   0.6449   0.5255   0.4658   0.2907   0.1826   0.1366   0.0967
     0.0653   0.0455   0.0275   0.0116   0.0074   0.0044   0.0028   0.0011
     0.0009   0.0005   0.0004   0.0001   0.0001   0.0001   0.0000   0.0000
     0.0000   0.0000   0.0000   0.0000   0.0000   0.0000

          k =-0.3333-0.3333 0.3333 ( 40314 PWs)   bands (ev):

    -5.8893  -5.6344  -5.4954  -5.3190  -5.1483  -4.9708  -4.8840  -4.6478
    -4.2546  -4.1576  -4.0958  -3.9331  -3.8944  -3.7507  -3.7070  -3.5588
    -3.4285  -3.3889  -3.3331  -3.1313  -2.9680  -2.8705  -2.7937  -2.7435
    -2.6127  -2.5475  -2.4895  -2.3475  -2.1879  -2.1449  -2.0950  -1.9928
    -1.7916  -1.6840  -1.5918  -1.4143  -1.2798  -1.1610  -1.0546  -1.0240
    -0.8713  -0.6719  -0.5865  -0.5196  -0.3546  -0.2722  -0.1824  -0.0575
     0.1074   0.2613   0.3827   0.4568   0.5543   0.7280   0.8170   0.9660
     1.0155   1.0653   1.2180   1.2995   1.4085   1.5135   1.5919   1.6643
     1.7210   1.8055   1.8763   1.9560   2.0057   2.1038   2.1803   2.2642
     2.3615   2.4387   2.5029   2.5585   2.6077   2.7202   2.7500   2.8622
     2.8922   2.9805   2.9961   3.0354   3.1354   3.1731   3.2412   3.3266
     3.3583   3.4147   3.4703   3.5084   3.5615   3.5967   3.6309   3.6588
     3.7348   3.8453   3.9002   3.9556   3.9971   4.0506   4.1034   4.1236
     4.1817   4.2231   4.2835   4.3466   4.3782   4.4532   4.4855   4.5548
     4.6238   4.6983   4.7482   4.8051   4.8498   4.9027   5.0090   5.0932
     5.1441   5.2349   5.3443   5.4048   5.5648   5.6307   5.7450   5.8006
     6.0011   6.0873   6.1804   6.3849   6.4705   6.6309   6.7709   6.8698
     6.9415   7.0381   7.1336   7.2144   7.2844   7.3340   7.4388   7.5167
     7.5732   7.6924   7.7311   7.8144   7.8634   8.0116   8.0435   8.0824
     8.2063   8.2514   8.2737   8.3527   8.4086   8.5053

     occupation numbers 
     1.0000   1.0000   1.0000   1.0000   1.0000   1.0000   1.0000   1.0000
     1.0000   1.0000   1.0000   1.0000   1.0000   1.0000   1.0000   1.0000
     1.0000   1.0000   1.0000   1.0000   1.0000   1.0000   1.0000   1.0000
     1.0000   1.0000   1.0000   1.0000   1.0000   1.0000   1.0000   1.0000
     1.0000   1.0000   1.0000   1.0000   1.0000   1.0000   1.0000   1.0000
     1.0000   1.0000   1.0000   1.0000   1.0000   1.0000   1.0000   1.0000
     1.0000   1.0000   1.0000   1.0000   1.0000   1.0000   1.0000   1.0000
     1.0000   1.0000   1.0000   1.0000   1.0000   1.0000   1.0000   1.0000
     1.0000   1.0000   1.0000   1.0000   1.0000   1.0000   1.0000   1.0000
     1.0000   1.0000   1.0000   1.0000   1.0000   1.0000   1.0000   1.0000
     1.0000   1.0000   1.0000   1.0000   1.0000   1.0000   1.0000   1.0000
     1.0000   1.0000   1.0000   1.0000   1.0000   1.0000   1.0000   1.0000
     1.0000   1.0000   1.0001   1.0001   1.0001   1.0002   1.0003   1.0003
     1.0005   1.0006   1.0010   1.0015   1.0018   1.0029   1.0035   1.0052
     1.0075   1.0110   1.0139   1.0179   1.0216   1.0267   1.0389   1.0500
     1.0570   1.0691   1.0802   1.0831   1.0714   1.0555   1.0089   0.9770
     0.8141   0.7260   0.6246   0.4040   0.3218   0.1949   0.1159   0.0766
     0.0553   0.0345   0.0209   0.0132   0.0087   0.0064   0.0032   0.0019
     0.0013   0.0005   0.0004   0.0002   0.0001   0.0000   0.0000   0.0000
     0.0000   0.0000   0.0000   0.0000   0.0000   0.0000

          k =-0.3333 0.3333-0.3333 ( 40314 PWs)   bands (ev):

    -5.8814  -5.6802  -5.4273  -5.3478  -5.0785  -5.0241  -4.9217  -4.6305
    -4.3231  -4.1452  -4.0068  -3.9609  -3.8802  -3.7825  -3.7111  -3.5422
    -3.4390  -3.3936  -3.2626  -3.0667  -2.9894  -2.9005  -2.7736  -2.7423
    -2.6642  -2.5841  -2.4846  -2.4258  -2.2744  -2.1493  -2.0817  -1.9386
    -1.7774  -1.6451  -1.5273  -1.4170  -1.2923  -1.1320  -1.0493  -0.9599
    -0.8954  -0.7259  -0.5858  -0.5031  -0.3760  -0.2689  -0.1062  -0.0143
     0.0592   0.2047   0.3547   0.4495   0.5119   0.7254   0.7883   0.8812
     1.0161   1.0881   1.2079   1.3492   1.4202   1.4949   1.5401   1.7159
     1.7714   1.8597   1.8904   1.9590   2.0344   2.1514   2.2079   2.3035
     2.3583   2.4040   2.4988   2.5645   2.6370   2.6890   2.7313   2.7633
     2.8465   2.9124   2.9648   3.0509   3.0954   3.1979   3.2703   3.3092
     3.3873   3.4179   3.4744   3.5085   3.5387   3.6257   3.6646   3.7471
     3.8185   3.8418   3.8751   3.9590   4.0519   4.0684   4.1024   4.1450
     4.1617   4.2514   4.2836   4.3412   4.3671   4.4385   4.4855   4.5159
     4.5758   4.6444   4.6884   4.7847   4.8454   4.8844   4.9503   5.0617
     5.1165   5.1848   5.4401   5.5090   5.5764   5.6203   5.7602   5.8701
     5.9490   6.0971   6.3015   6.3804   6.4745   6.6154   6.7219   6.8000
     6.9009   6.9788   7.1422   7.1866   7.2776   7.3419   7.4284   7.5552
     7.6233   7.7047   7.7675   7.8234   7.9424   7.9818   8.0295   8.0572
     8.1727   8.2203   8.3141   8.3440   8.4087   8.4568

     occupation numbers 
     1.0000   1.0000   1.0000   1.0000   1.0000   1.0000   1.0000   1.0000
     1.0000   1.0000   1.0000   1.0000   1.0000   1.0000   1.0000   1.0000
     1.0000   1.0000   1.0000   1.0000   1.0000   1.0000   1.0000   1.0000
     1.0000   1.0000   1.0000   1.0000   1.0000   1.0000   1.0000   1.0000
     1.0000   1.0000   1.0000   1.0000   1.0000   1.0000   1.0000   1.0000
     1.0000   1.0000   1.0000   1.0000   1.0000   1.0000   1.0000   1.0000
     1.0000   1.0000   1.0000   1.0000   1.0000   1.0000   1.0000   1.0000
     1.0000   1.0000   1.0000   1.0000   1.0000   1.0000   1.0000   1.0000
     1.0000   1.0000   1.0000   1.0000   1.0000   1.0000   1.0000   1.0000
     1.0000   1.0000   1.0000   1.0000   1.0000   1.0000   1.0000   1.0000
     1.0000   1.0000   1.0000   1.0000   1.0000   1.0000   1.0000   1.0000
     1.0000   1.0000   1.0000   1.0000   1.0000   1.0000   1.0000   1.0000
     1.0000   1.0000   1.0000   1.0001   1.0002   1.0002   1.0003   1.0004
     1.0004   1.0008   1.0010   1.0014   1.0017   1.0026   1.0035   1.0042
     1.0058   1.0084   1.0105   1.0164   1.0213   1.0249   1.0318   1.0457
     1.0532   1.0626   1.0832   1.0793   1.0691   1.0585   1.0008   0.9285
     0.8628   0.7156   0.4913   0.4086   0.3181   0.2055   0.1403   0.1030
     0.0667   0.0463   0.0199   0.0155   0.0091   0.0061   0.0035   0.0014
     0.0009   0.0005   0.0003   0.0002   0.0001   0.0000   0.0000   0.0000
     0.0000   0.0000   0.0000   0.0000   0.0000   0.0000

          k = 0.3333-0.3333-0.3333 ( 40314 PWs)   bands (ev):

    -5.8888  -5.6590  -5.4276  -5.3578  -5.1180  -5.0408  -4.8449  -4.6649
    -4.2541  -4.1581  -4.0755  -3.9834  -3.8878  -3.7119  -3.6620  -3.5728
    -3.4982  -3.3595  -3.2518  -3.0694  -3.0458  -2.9380  -2.8259  -2.7182
    -2.6785  -2.5281  -2.4187  -2.3785  -2.2192  -2.1809  -2.0759  -1.9029
    -1.7849  -1.6959  -1.5780  -1.4277  -1.2774  -1.2024  -1.1418  -0.9854
    -0.8117  -0.6617  -0.5679  -0.4652  -0.3617  -0.2704  -0.1400  -0.0327
     0.0415   0.2193   0.3519   0.4663   0.5930   0.6280   0.7538   0.9570
     1.0422   1.0679   1.2347   1.3300   1.4320   1.5037   1.6275   1.6657
     1.7758   1.8449   1.9004   1.9754   2.0099   2.0879   2.1507   2.2545
     2.3349   2.3879   2.4862   2.5746   2.6473   2.6957   2.7724   2.7891
     2.8176   2.9160   3.0264   3.0673   3.1415   3.2124   3.2657   3.3187
     3.3454   3.4164   3.4902   3.5366   3.5684   3.6038   3.6780   3.6840
     3.7092   3.8079   3.8706   3.9198   3.9820   4.0194   4.0951   4.1243
     4.1915   4.2590   4.3078   4.3289   4.3790   4.4893   4.5158   4.5599
     4.5838   4.6905   4.7537   4.7959   4.8444   4.9434   5.0313   5.1010
     5.2121   5.2829   5.3226   5.4038   5.5619   5.6183   5.7565   5.8002
     6.0249   6.1698   6.2217   6.3254   6.3777   6.6137   6.6615   6.7911
     6.8843   6.9855   7.0696   7.1663   7.2534   7.3476   7.4357   7.5682
     7.6021   7.7036   7.7671   7.8526   7.9292   7.9872   8.0940   8.1413
     8.1866   8.2467   8.3069   8.3487   8.4321   8.4734

     occupation numbers 
     1.0000   1.0000   1.0000   1.0000   1.0000   1.0000   1.0000   1.0000
     1.0000   1.0000   1.0000   1.0000   1.0000   1.0000   1.0000   1.0000
     1.0000   1.0000   1.0000   1.0000   1.0000   1.0000   1.0000   1.0000
     1.0000   1.0000   1.0000   1.0000   1.0000   1.0000   1.0000   1.0000
     1.0000   1.0000   1.0000   1.0000   1.0000   1.0000   1.0000   1.0000
     1.0000   1.0000   1.0000   1.0000   1.0000   1.0000   1.0000   1.0000
     1.0000   1.0000   1.0000   1.0000   1.0000   1.0000   1.0000   1.0000
     1.0000   1.0000   1.0000   1.0000   1.0000   1.0000   1.0000   1.0000
     1.0000   1.0000   1.0000   1.0000   1.0000   1.0000   1.0000   1.0000
     1.0000   1.0000   1.0000   1.0000   1.0000   1.0000   1.0000   1.0000
     1.0000   1.0000   1.0000   1.0000   1.0000   1.0000   1.0000   1.0000
     1.0000   1.0000   1.0000   1.0000   1.0000   1.0000   1.0000   1.0000
     1.0000   1.0000   1.0000   1.0001   1.0001   1.0001   1.0002   1.0003
     1.0005   1.0008   1.0011   1.0013   1.0018   1.0036   1.0042   1.0053
     1.0061   1.0106   1.0143   1.0172   1.0212   1.0310   1.0417   1.0511
     1.0662   1.0747   1.0785   1.0831   1.0719   1.0591   1.0028   0.9773
     0.7906   0.6364   0.5788   0.4657   0.4113   0.2066   0.1751   0.1068
     0.0718   0.0448   0.0294   0.0174   0.0105   0.0059   0.0033   0.0013
     0.0010   0.0005   0.0003   0.0001   0.0001   0.0000   0.0000   0.0000
     0.0000   0.0000   0.0000   0.0000   0.0000   0.0000

     the Fermi energy is     6.3883 ev

!    total energy              =    -511.62852711 Ry
     Harris-Foulkes estimate   =    -511.62852711 Ry
     estimated scf accuracy    <          9.6E-09 Ry

     The total energy is the sum of the following terms:

     one-electron contribution =     140.52701448 Ry
     hartree contribution      =      44.25362741 Ry
     xc contribution           =    -159.31425677 Ry
     ewald contribution        =    -537.12931398 Ry
     smearing contrib. (-TS)   =       0.03440174 Ry

     convergence has been achieved in  18 iterations

     Forces acting on atoms (cartesian axes, Ry/au):

     atom    1 type  1   force =    -0.01007226    0.01767806    0.00554350
     atom    2 type  1   force =     0.00433809    0.00803869    0.00753063
     atom    3 type  1   force =    -0.00898072    0.00118235   -0.01251342
     atom    4 type  1   force =    -0.00774977    0.00054938    0.01112950
     atom    5 type  1   force =    -0.02060854   -0.00865158   -0.00090504
     atom    6 type  1   force =     0.00271382   -0.00571912   -0.00359938
     atom    7 type  1   force =    -0.01131532    0.00548442    0.00687884
     atom    8 type  1   force =    -0.01480818    0.00254986    0.00813008
     atom    9 type  1   force =     0.00012687    0.00569205    0.00285589
     atom   10 type  1   force =     0.00297678   -0.00470650   -0.01633658
     atom   11 type  1   force =    -0.00765128    0.01396129    0.00308422
     atom   12 type  1   force =     0.00278902   -0.00124133   -0.00429104
     atom   13 type  1   force =     0.00308695   -0.02063951   -0.00074176
     atom   14 type  1   force =     0.00332848   -0.00088303   -0.00605315
     atom   15 type  1   force =    -0.00034725    0.00346792    0.00629871
     atom   16 type  1   force =    -0.00594541   -0.01089908   -0.00318833
     atom   17 type  1   force =    -0.00394916    0.00844457   -0.00253561
     atom   18 type  1   force =     0.00299366   -0.01022489    0.00909041
     atom   19 type  1   force =    -0.00714543   -0.00359843   -0.00403048
     atom   20 type  1   force =     0.01424607   -0.00373203    0.00688790
     atom   21 type  1   force =    -0.00346777   -0.00385498   -0.00205146
     atom   22 type  1   force =     0.01036815   -0.01152231    0.00405663
     atom   23 type  1   force =    -0.01279569    0.00966870   -0.00189824
     atom   24 type  1   force =     0.01378874   -0.00019471   -0.00669739
     atom   25 type  1   force =     0.01695669   -0.01092027   -0.00691330
     atom   26 type  1   force =     0.00610492    0.00299442    0.00025708
     atom   27 type  1   force =    -0.00233348   -0.00446170   -0.00072892
     atom   28 type  1   force =    -0.00640834   -0.00169321   -0.01157456
     atom   29 type  1   force =     0.02768872    0.01028050    0.00104514
     atom   30 type  1   force =     0.01062320    0.00002140    0.00211769
     atom   31 type  1   force =     0.01389532   -0.00262791    0.00022478
     atom   32 type  1   force =     0.01368871    0.00294003    0.00607062
     atom   33 type  1   force =     0.00263478   -0.00247307    0.00213442
     atom   34 type  1   force =    -0.00093113   -0.01156255    0.00343321
     atom   35 type  1   force =     0.01787635   -0.00313933   -0.00760436
     atom   36 type  1   force =    -0.00412706   -0.00076546    0.00465991
     atom   37 type  1   force =    -0.00534244   -0.01079199   -0.00496526
     atom   38 type  1   force =    -0.00362315    0.00339902   -0.00197459
     atom   39 type  1   force =    -0.01558550   -0.00132033   -0.00380346
     atom   40 type  1   force =    -0.00091028   -0.00121531   -0.00847719
     atom   41 type  1   force =     0.00605625   -0.00186175    0.00042285
     atom   42 type  1   force =    -0.00172247    0.01597029   -0.00615380
     atom   43 type  1   force =     0.00571136   -0.00566683    0.01173819
     atom   44 type  1   force =     0.00033194   -0.00156557   -0.00808621
     atom   45 type  1   force =     0.01375194   -0.00255652   -0.00278895
     atom   46 type  1   force =     0.00225584   -0.00051889    0.00223649
     atom   47 type  1   force =    -0.01874026    0.02466660   -0.00307260
     atom   48 type  1   force =     0.00914124   -0.02809760    0.01636044
     atom   49 type  1   force =     0.00432962   -0.00117092    0.00337380
     atom   50 type  1   force =    -0.00558195    0.00264900   -0.00838287
     atom   51 type  1   force =     0.02086179    0.00471654   -0.01318693
     atom   52 type  1   force =    -0.00161354   -0.01022037    0.01766314
     atom   53 type  1   force =    -0.00020764    0.01066864   -0.01118067
     atom   54 type  1   force =    -0.00525614    0.01943380    0.01044760
     atom   55 type  1   force =    -0.00996450   -0.00740490    0.00169723
     atom   56 type  1   force =     0.00552913    0.00578952   -0.01000272
     atom   57 type  1   force =    -0.01560272    0.00724361   -0.00319040
     atom   58 type  1   force =    -0.00808177   -0.00220546    0.00282684
     atom   59 type  1   force =     0.00581469   -0.00035841   -0.00322374
     atom   60 type  1   force =    -0.00050411    0.00047212    0.00121232
     atom   61 type  1   force =    -0.00576754    0.00671320    0.01211982
     atom   62 type  1   force =     0.00214002   -0.00159760   -0.00324812
     atom   63 type  1   force =     0.00160320    0.00240518   -0.00321045
     atom   64 type  1   force =    -0.00391414    0.00450885    0.00705207
     atom   65 type  2   force =     0.00105561    0.00651935    0.00183558
     atom   66 type  2   force =    -0.00701629    0.00918288    0.01107664
     atom   67 type  2   force =    -0.00897114   -0.00060325   -0.00338573
     atom   68 type  2   force =     0.02488238   -0.00352242   -0.01256626
     atom   69 type  2   force =    -0.00467021   -0.00997958   -0.00253266
     atom   70 type  2   force =    -0.00949732    0.00258892    0.00154041
     atom   71 type  2   force =    -0.01445421   -0.00206933    0.00242472
     atom   72 type  2   force =     0.00197378   -0.00364311    0.00963834
     The non-local contrib.  to forces
     atom    1 type  1   force =     0.07736225    0.03439412    0.11936253
     atom    2 type  1   force =    -0.00908452   -0.03103224    0.02130472
     atom    3 type  1   force =     0.01249383   -0.02209152   -0.02827364
     atom    4 type  1   force =    -0.08709585    0.03846069   -0.03023807
     atom    5 type  1   force =    -0.02709942   -0.01952935    0.03012159
     atom    6 type  1   force =     0.09002678   -0.04817336   -0.02189634
     atom    7 type  1   force =     0.03743889    0.01474016   -0.02455514
     atom    8 type  1   force =     0.04669663   -0.12415782   -0.07789143
     atom    9 type  1   force =     0.04317945   -0.02112110    0.08923564
     atom   10 type  1   force =     0.08240442   -0.09026832   -0.01416606
     atom   11 type  1   force =     0.08668233   -0.00565485    0.05929871
     atom   12 type  1   force =     0.00346909    0.06733984    0.03189540
     atom   13 type  1   force =    -0.06087763   -0.01181249    0.02312571
     atom   14 type  1   force =     0.03660477   -0.02526821   -0.01224789
     atom   15 type  1   force =     0.00894041   -0.03281071   -0.01260314
     atom   16 type  1   force =     0.01353030    0.02195346   -0.04427868
     atom   17 type  1   force =     0.04510984    0.01312881    0.01413547
     atom   18 type  1   force =     0.07526789    0.06450744   -0.07897389
     atom   19 type  1   force =     0.05240608   -0.02214974    0.02218100
     atom   20 type  1   force =     0.02714466   -0.02742102    0.01416146
     atom   21 type  1   force =    -0.04973046   -0.01358415    0.06683543
     atom   22 type  1   force =     0.05569500    0.06575773   -0.00807920
     atom   23 type  1   force =     0.02355821   -0.07656620    0.06911236
     atom   24 type  1   force =    -0.03952274   -0.06997288   -0.01439039
     atom   25 type  1   force =     0.10027152    0.00994291   -0.01812127
     atom   26 type  1   force =    -0.08191909    0.00964831    0.01733222
     atom   27 type  1   force =    -0.00750213    0.06436839   -0.08057810
     atom   28 type  1   force =     0.00815499    0.06376067    0.01028682
     atom   29 type  1   force =     0.04212503    0.00013392    0.02549769
     atom   30 type  1   force =    -0.02613300    0.00500689   -0.08336856
     atom   31 type  1   force =    -0.01749084   -0.05572972    0.02846216
     atom   32 type  1   force =     0.05241250    0.01985532    0.01587321
     atom   33 type  1   force =    -0.00851826    0.01519031    0.00703497
     atom   34 type  1   force =     0.00090928   -0.01197775    0.03285172
     atom   35 type  1   force =    -0.08038359    0.11475924   -0.01733451
     atom   36 type  1   force =    -0.04363050   -0.00630448    0.02797648
     atom   37 type  1   force =     0.02619033   -0.02044281    0.05146153
     atom   38 type  1   force =    -0.02676529   -0.03150249   -0.03702250
     atom   39 type  1   force =     0.01212032    0.06221531    0.02871210
     atom   40 type  1   force =     0.02388174    0.03515200   -0.06639321
     atom   41 type  1   force =     0.05342387    0.05238115   -0.04728130
     atom   42 type  1   force =     0.04031644    0.01993576   -0.03248271
     atom   43 type  1   force =     0.04405071   -0.00731231    0.02216191
     atom   44 type  1   force =    -0.11494456    0.02005820   -0.01370741
     atom   45 type  1   force =    -0.02232568    0.05896686   -0.08748149
     atom   46 type  1   force =    -0.08270636   -0.04008592   -0.06164159
     atom   47 type  1   force =    -0.02356288   -0.08874413   -0.07969025
     atom   48 type  1   force =     0.06235266    0.03479639    0.03314730
     atom   49 type  1   force =     0.02054517   -0.04133914    0.01396296
     atom   50 type  1   force =    -0.03185177   -0.09058513   -0.00551294
     atom   51 type  1   force =     0.04208934    0.00889646    0.05666630
     atom   52 type  1   force =     0.02760598    0.02584429    0.03658985
     atom   53 type  1   force =    -0.04514095   -0.03212263    0.02072439
     atom   54 type  1   force =     0.05785209    0.05125390   -0.03519308
     atom   55 type  1   force =    -0.02604698    0.02726549    0.05096821
     atom   56 type  1   force =    -0.07188571    0.02989655   -0.06098855
     atom   57 type  1   force =    -0.00960661    0.00903113   -0.03059586
     atom   58 type  1   force =     0.06376075    0.03226863   -0.04391110
     atom   59 type  1   force =    -0.01195663    0.01220321    0.03542840
     atom   60 type  1   force =    -0.03254373    0.00936286    0.01056982
     atom   61 type  1   force =    -0.00028936    0.00342528    0.02800062
     atom   62 type  1   force =    -0.03943996   -0.04642335   -0.00473606
     atom   63 type  1   force =     0.05710809   -0.00877677   -0.05204828
     atom   64 type  1   force =     0.02554586    0.00935279    0.03326351
     atom   65 type  2   force =     0.00000000    0.00000000    0.00000000
     atom   66 type  2   force =     0.00000000    0.00000000    0.00000000
     atom   67 type  2   force =     0.00000000    0.00000000    0.00000000
     atom   68 type  2   force =     0.00000000    0.00000000    0.00000000
     atom   69 type  2   force =     0.00000000    0.00000000    0.00000000
     atom   70 type  2   force =     0.00000000    0.00000000    0.00000000
     atom   71 type  2   force =     0.00000000    0.00000000    0.00000000
     atom   72 type  2   force =     0.00000000    0.00000000    0.00000000
[...]
     atom   25 type  1   force =     0.00000000    0.00000000    0.00000000
     atom   26 type  1   force =     0.00000000    0.00000000    0.00000000
     atom   27 type  1   force =     0.00000000    0.00000000    0.00000000
     atom   28 type  1   force =     0.00000000    0.00000000    0.00000000
     atom   29 type  1   force =     0.00000000    0.00000000    0.00000000
     atom   30 type  1   force =     0.00000000    0.00000000    0.00000000
     atom   31 type  1   force =     0.00000000    0.00000000    0.00000000
     atom   32 type  1   force =     0.00000000    0.00000000    0.00000000
     atom   33 type  1   force =     0.00000000    0.00000000    0.00000000
     atom   34 type  1   force =     0.00000000    0.00000000    0.00000000
     atom   35 type  1   force =     0.00000000    0.00000000    0.00000000
     atom   36 type  1   force =     0.00000000    0.00000000    0.00000000
     atom   37 type  1   force =     0.00000000    0.00000000    0.00000000
     atom   38 type  1   force =     0.00000000    0.00000000    0.00000000
     atom   39 type  1   force =     0.00000000    0.00000000    0.00000000
     atom   40 type  1   force =     0.00000000    0.00000000    0.00000000
     atom   41 type  1   force =     0.00000000    0.00000000    0.00000000
     atom   42 type  1   force =     0.00000000    0.00000000    0.00000000
     atom   43 type  1   force =     0.00000000    0.00000000    0.00000000
     atom   44 type  1   force =     0.00000000    0.00000000    0.00000000
     atom   45 type  1   force =     0.00000000    0.00000000    0.00000000
     atom   46 type  1   force =     0.00000000    0.00000000    0.00000000
     atom   47 type  1   force =     0.00000000    0.00000000    0.00000000
     atom   48 type  1   force =     0.00000000    0.00000000    0.00000000
     atom   49 type  1   force =     0.00000000    0.00000000    0.00000000
     atom   50 type  1   force =     0.00000000    0.00000000    0.00000000
     atom   51 type  1   force =     0.00000000    0.00000000    0.00000000
     atom   52 type  1   force =     0.00000000    0.00000000    0.00000000
     atom   53 type  1   force =     0.00000000    0.00000000    0.00000000
     atom   54 type  1   force =     0.00000000    0.00000000    0.00000000
     atom   55 type  1   force =     0.00000000    0.00000000    0.00000000
     atom   56 type  1   force =     0.00000000    0.00000000    0.00000000
     atom   57 type  1   force =     0.00000000    0.00000000    0.00000000
     atom   58 type  1   force =     0.00000000    0.00000000    0.00000000
     atom   59 type  1   force =     0.00000000    0.00000000    0.00000000
     atom   60 type  1   force =     0.00000000    0.00000000    0.00000000
     atom   61 type  1   force =     0.00000000    0.00000000    0.00000000
     atom   62 type  1   force =     0.00000000    0.00000000    0.00000000
     atom   63 type  1   force =     0.00000000    0.00000000    0.00000000
     atom   64 type  1   force =     0.00000000    0.00000000    0.00000000
     atom   65 type  2   force =     0.00000000    0.00000000    0.00000000
     atom   66 type  2   force =     0.00000000    0.00000000    0.00000000
     atom   67 type  2   force =     0.00000000    0.00000000    0.00000000
     atom   68 type  2   force =     0.00000000    0.00000000    0.00000000
     atom   69 type  2   force =     0.00000000    0.00000000    0.00000000
     atom   70 type  2   force =     0.00000000    0.00000000    0.00000000
     atom   71 type  2   force =     0.00000000    0.00000000    0.00000000
     atom   72 type  2   force =     0.00000000    0.00000000    0.00000000
     The Hubbard contrib.    to forces
     atom    1 type  1   force =     0.00000000    0.00000000    0.00000000
     atom    2 type  1   force =     0.00000000    0.00000000    0.00000000
     atom    3 type  1   force =     0.00000000    0.00000000    0.00000000
     atom    4 type  1   force =     0.00000000    0.00000000    0.00000000
     atom    5 type  1   force =     0.00000000    0.00000000    0.00000000
     atom    6 type  1   force =     0.00000000    0.00000000    0.00000000
     atom    7 type  1   force =     0.00000000    0.00000000    0.00000000
     atom    8 type  1   force =     0.00000000    0.00000000    0.00000000
     atom    9 type  1   force =     0.00000000    0.00000000    0.00000000
     atom   10 type  1   force =     0.00000000    0.00000000    0.00000000
     atom   11 type  1   force =     0.00000000    0.00000000    0.00000000
     atom   12 type  1   force =     0.00000000    0.00000000    0.00000000
     atom   13 type  1   force =     0.00000000    0.00000000    0.00000000
     atom   14 type  1   force =     0.00000000    0.00000000    0.00000000
     atom   15 type  1   force =     0.00000000    0.00000000    0.00000000
     atom   16 type  1   force =     0.00000000    0.00000000    0.00000000
     atom   17 type  1   force =     0.00000000    0.00000000    0.00000000
     atom   18 type  1   force =     0.00000000    0.00000000    0.00000000
     atom   19 type  1   force =     0.00000000    0.00000000    0.00000000
     atom   20 type  1   force =     0.00000000    0.00000000    0.00000000
     atom   21 type  1   force =     0.00000000    0.00000000    0.00000000
     atom   22 type  1   force =     0.00000000    0.00000000    0.00000000
     atom   23 type  1   force =     0.00000000    0.00000000    0.00000000
     atom   24 type  1   force =     0.00000000    0.00000000    0.00000000
     atom   25 type  1   force =     0.00000000    0.00000000    0.00000000
     atom   26 type  1   force =     0.00000000    0.00000000    0.00000000
     atom   27 type  1   force =     0.00000000    0.00000000    0.00000000
     atom   28 type  1   force =     0.00000000    0.00000000    0.00000000
     atom   29 type  1   force =     0.00000000    0.00000000    0.00000000
     atom   30 type  1   force =     0.00000000    0.00000000    0.00000000
     atom   31 type  1   force =     0.00000000    0.00000000    0.00000000
     atom   32 type  1   force =     0.00000000    0.00000000    0.00000000
     atom   33 type  1   force =     0.00000000    0.00000000    0.00000000
     atom   34 type  1   force =     0.00000000    0.00000000    0.00000000
     atom   35 type  1   force =     0.00000000    0.00000000    0.00000000
     atom   36 type  1   force =     0.00000000    0.00000000    0.00000000
     atom   37 type  1   force =     0.00000000    0.00000000    0.00000000
     atom   38 type  1   force =     0.00000000    0.00000000    0.00000000
     atom   39 type  1   force =     0.00000000    0.00000000    0.00000000
     atom   40 type  1   force =     0.00000000    0.00000000    0.00000000
     atom   41 type  1   force =     0.00000000    0.00000000    0.00000000
     atom   42 type  1   force =     0.00000000    0.00000000    0.00000000
     atom   43 type  1   force =     0.00000000    0.00000000    0.00000000
     atom   44 type  1   force =     0.00000000    0.00000000    0.00000000
     atom   45 type  1   force =     0.00000000    0.00000000    0.00000000
     atom   46 type  1   force =     0.00000000    0.00000000    0.00000000
     atom   47 type  1   force =     0.00000000    0.00000000    0.00000000
     atom   48 type  1   force =     0.00000000    0.00000000    0.00000000
     atom   49 type  1   force =     0.00000000    0.00000000    0.00000000
     atom   50 type  1   force =     0.00000000    0.00000000    0.00000000
     atom   51 type  1   force =     0.00000000    0.00000000    0.00000000
     atom   52 type  1   force =     0.00000000    0.00000000    0.00000000
     atom   53 type  1   force =     0.00000000    0.00000000    0.00000000
     atom   54 type  1   force =     0.00000000    0.00000000    0.00000000
     atom   55 type  1   force =     0.00000000    0.00000000    0.00000000
     atom   56 type  1   force =     0.00000000    0.00000000    0.00000000
     atom   57 type  1   force =     0.00000000    0.00000000    0.00000000
     atom   58 type  1   force =     0.00000000    0.00000000    0.00000000
     atom   59 type  1   force =     0.00000000    0.00000000    0.00000000
     atom   60 type  1   force =     0.00000000    0.00000000    0.00000000
     atom   61 type  1   force =     0.00000000    0.00000000    0.00000000
     atom   62 type  1   force =     0.00000000    0.00000000    0.00000000
     atom   63 type  1   force =     0.00000000    0.00000000    0.00000000
     atom   64 type  1   force =     0.00000000    0.00000000    0.00000000
     atom   65 type  2   force =     0.00000000    0.00000000    0.00000000
     atom   66 type  2   force =     0.00000000    0.00000000    0.00000000
     atom   67 type  2   force =     0.00000000    0.00000000    0.00000000
     atom   68 type  2   force =     0.00000000    0.00000000    0.00000000
     atom   69 type  2   force =     0.00000000    0.00000000    0.00000000
     atom   70 type  2   force =     0.00000000    0.00000000    0.00000000
     atom   71 type  2   force =     0.00000000    0.00000000    0.00000000
     atom   72 type  2   force =     0.00000000    0.00000000    0.00000000
     The SCF correction term to forces
     atom    1 type  1   force =    -0.00000114   -0.00001064    0.00001768
     atom    2 type  1   force =     0.00000234   -0.00000342   -0.00001792
     atom    3 type  1   force =    -0.00000154   -0.00000385    0.00001467
     atom    4 type  1   force =    -0.00000492   -0.00001469   -0.00002449
     atom    5 type  1   force =    -0.00000396    0.00000834   -0.00000305
     atom    6 type  1   force =     0.00000228    0.00000593    0.00002303
     atom    7 type  1   force =     0.00001836   -0.00000154   -0.00002121
     atom    8 type  1   force =     0.00000368    0.00000340   -0.00001937
     atom    9 type  1   force =     0.00000305    0.00000439    0.00001517
     atom   10 type  1   force =     0.00000252   -0.00001532   -0.00000498
     atom   11 type  1   force =     0.00001242   -0.00000789    0.00001077
     atom   12 type  1   force =    -0.00000250    0.00000707    0.00001424
     atom   13 type  1   force =    -0.00000370    0.00000845    0.00000588
     atom   14 type  1   force =     0.00000371    0.00000960   -0.00001753
     atom   15 type  1   force =    -0.00000653   -0.00001370   -0.00000503
     atom   16 type  1   force =     0.00000887    0.00000486    0.00001340
     atom   17 type  1   force =    -0.00000405    0.00000902   -0.00000325
     atom   18 type  1   force =    -0.00000729    0.00000766    0.00001462
     atom   19 type  1   force =     0.00000629   -0.00000280   -0.00002332
     atom   20 type  1   force =     0.00000515   -0.00000764   -0.00001246
     atom   21 type  1   force =     0.00000266   -0.00000131    0.00001444
     atom   22 type  1   force =     0.00000652   -0.00000159   -0.00000028
     atom   23 type  1   force =    -0.00000416   -0.00000934    0.00001416
     atom   24 type  1   force =     0.00000830   -0.00000703    0.00002776
     atom   25 type  1   force =    -0.00000194   -0.00000264    0.00000819
     atom   26 type  1   force =     0.00000545   -0.00000966    0.00000424
     atom   27 type  1   force =     0.00000027   -0.00000534    0.00001081
     atom   28 type  1   force =     0.00000477   -0.00000010    0.00002272
     atom   29 type  1   force =     0.00000997    0.00001556   -0.00001890
     atom   30 type  1   force =     0.00000346   -0.00000162    0.00000894
     atom   31 type  1   force =    -0.00000990    0.00001253   -0.00001062
     atom   32 type  1   force =     0.00000387    0.00000953    0.00000144
     atom   33 type  1   force =     0.00001276    0.00001547   -0.00001659
     atom   34 type  1   force =    -0.00000073    0.00000553   -0.00002426
     atom   35 type  1   force =    -0.00000444    0.00000909    0.00000265
     atom   36 type  1   force =     0.00000465   -0.00001067   -0.00002517
     atom   37 type  1   force =    -0.00000901    0.00000842   -0.00001487
     atom   38 type  1   force =     0.00000718    0.00000057   -0.00000353
     atom   39 type  1   force =     0.00001278   -0.00001212   -0.00002669
     atom   40 type  1   force =     0.00000470    0.00000283    0.00001987
     atom   41 type  1   force =     0.00000407    0.00000587   -0.00001123
     atom   42 type  1   force =    -0.00001017    0.00000573   -0.00001423
     atom   43 type  1   force =    -0.00000990   -0.00000046    0.00001280
     atom   44 type  1   force =    -0.00001817   -0.00001086    0.00000371
     atom   45 type  1   force =    -0.00000573   -0.00001227   -0.00002956
     atom   46 type  1   force =    -0.00001298   -0.00000841   -0.00001834
     atom   47 type  1   force =    -0.00001096   -0.00000479    0.00002096
     atom   48 type  1   force =    -0.00000193    0.00000268    0.00001744
     atom   49 type  1   force =    -0.00000781   -0.00000190   -0.00001709
     atom   50 type  1   force =    -0.00000164    0.00000818    0.00000909
     atom   51 type  1   force =    -0.00000154    0.00001255    0.00000318
     atom   52 type  1   force =     0.00000668   -0.00001107   -0.00001328
     atom   53 type  1   force =    -0.00000446   -0.00001174    0.00000007
     atom   54 type  1   force =    -0.00000300   -0.00000592   -0.00000856
     atom   55 type  1   force =    -0.00000024    0.00000752   -0.00002089
     atom   56 type  1   force =    -0.00000263    0.00000195    0.00001346
     atom   57 type  1   force =     0.00000233    0.00000809    0.00000279
     atom   58 type  1   force =     0.00000728   -0.00000199   -0.00001114
     atom   59 type  1   force =     0.00000086   -0.00000768    0.00002464
     atom   60 type  1   force =     0.00000412    0.00000658    0.00002036
     atom   61 type  1   force =     0.00000354    0.00001500   -0.00001000
     atom   62 type  1   force =     0.00000369   -0.00000442    0.00002088
     atom   63 type  1   force =     0.00000232    0.00000880    0.00001430
     atom   64 type  1   force =    -0.00001528   -0.00001585   -0.00001829
     atom   65 type  2   force =    -0.00000069   -0.00000196    0.00000645
     atom   66 type  2   force =    -0.00000467   -0.00000087   -0.00000211
     atom   67 type  2   force =    -0.00000221    0.00000096    0.00000345
     atom   68 type  2   force =    -0.00000222   -0.00000211    0.00000330
     atom   69 type  2   force =    -0.00000299   -0.00000089    0.00000403
     atom   70 type  2   force =     0.00000184    0.00000275   -0.00000212
     atom   71 type  2   force =    -0.00000117    0.00000337   -0.00000336
     atom   72 type  2   force =    -0.00000072    0.00000228   -0.00000009

     Total force =     0.125580     Total SCF correction =     0.000155


     Computing stress (Cartesian axis) and pressure

          total   stress  (Ry/bohr**3)                   (kbar)     P=    7.09
   0.00004639  -0.00000173   0.00008057          6.82     -0.25     11.85
  -0.00000173   0.00006630  -0.00003335         -0.25      9.75     -4.91
   0.00008057  -0.00003335   0.00003198         11.85     -4.91      4.70

     kinetic stress (kbar)   2331.79     -3.82     16.78
                               -3.82   2333.81     -6.28
                               16.78     -6.28   2326.40

     local   stress (kbar)  -1203.13     22.00    106.11
                               22.00  -1315.52     62.49
                              106.11     62.49  -1368.58

     nonloc. stress (kbar)   2537.37      9.53     -4.59
                                9.53   2546.81      6.29
                               -4.59      6.29   2552.69

     hartree stress (kbar)    227.08    -20.06    -26.12
                              -20.06    253.22    -26.48
                              -26.12    -26.48    261.73

     exc-cor stress (kbar)   -818.87     -0.15     -0.26
                               -0.15   -818.51     -0.18
                               -0.26     -0.18   -818.51

     corecor stress (kbar)      0.00      0.00      0.00
                                0.00      0.00      0.00
                                0.00      0.00      0.00

     ewald   stress (kbar)  -3067.42     -7.75    -80.06
                               -7.75  -2990.06    -40.75
                              -80.06    -40.75  -2949.03

     hubbard stress (kbar)      0.00      0.00      0.00
                                0.00      0.00      0.00
                                0.00      0.00      0.00

     london  stress (kbar)      0.00      0.00      0.00
                                0.00      0.00      0.00
                                0.00      0.00      0.00

     DFT-D3  stress (kbar)      0.00      0.00      0.00
                                0.00      0.00      0.00
                                0.00      0.00      0.00

     XDM     stress (kbar)      0.00      0.00      0.00
                                0.00      0.00      0.00
                                0.00      0.00      0.00

     dft-nl  stress (kbar)      0.00      0.00      0.00
                                0.00      0.00      0.00
                                0.00      0.00      0.00

     TS-vdW  stress (kbar)      0.00      0.00      0.00
                                0.00      0.00      0.00
                                0.00      0.00      0.00



     Writing output data file liquid_optimize3.save

     init_run     :     26.87s CPU     28.30s WALL (       1 calls)
     electrons    :    878.90s CPU    950.95s WALL (       1 calls)
     forces       :      5.49s CPU      5.53s WALL (       1 calls)
     stress       :     41.14s CPU     41.19s WALL (       1 calls)

     Called by init_run:
     wfcinit      :     26.18s CPU     27.48s WALL (       1 calls)
     wfcinit:atom :      0.16s CPU      0.28s WALL (      14 calls)
     wfcinit:wfcr :     24.14s CPU     25.13s WALL (      14 calls)
     potinit      :      0.21s CPU      0.33s WALL (       1 calls)

     Called by electrons:
     c_bands      :    772.21s CPU    838.39s WALL (      19 calls)
     sum_band     :    104.70s CPU    108.74s WALL (      19 calls)
     v_of_rho     :      1.69s CPU      1.74s WALL (      19 calls)
     v_h          :      0.10s CPU      0.10s WALL (      19 calls)
     v_xc         :      1.59s CPU      1.64s WALL (      19 calls)
     mix_rho      :      0.34s CPU      0.36s WALL (      19 calls)

     Called by c_bands:
     init_us_2    :      6.19s CPU      6.24s WALL (     574 calls)
     cegterg      :    762.14s CPU    797.68s WALL (     266 calls)

     Called by sum_band:

     Called by *egterg:
     h_psi        :    545.66s CPU    564.53s WALL (    1179 calls)
     g_psi        :      2.07s CPU      2.07s WALL (     899 calls)
     cdiaghg      :     80.29s CPU     80.45s WALL (    1151 calls)
     cegterg:over :     59.93s CPU     60.71s WALL (     899 calls)
     cegterg:upda :     44.26s CPU     44.31s WALL (     899 calls)
     cegterg:last :     22.66s CPU     22.70s WALL (     266 calls)

     Called by h_psi:
     h_psi:pot    :    541.23s CPU    559.93s WALL (    1179 calls)
     h_psi:calbec :     48.09s CPU     48.59s WALL (    1179 calls)
     vloc_psi     :    443.49s CPU    461.64s WALL (    1179 calls)
     add_vuspsi   :     49.64s CPU     49.70s WALL (    1179 calls)

     General routines
     calbec       :     53.38s CPU     53.93s WALL (    1249 calls)
     fft          :      0.83s CPU      0.89s WALL (     218 calls)
     fftw         :    490.42s CPU    511.39s WALL (  245870 calls)

     Parallel routines
     fft_scatt_xy :     58.76s CPU     61.54s WALL (  246088 calls)
     fft_scatt_yz :     92.09s CPU    101.22s WALL (  246088 calls)

     PWSCF        : 15m53.40s CPU    17m10.50s WALL


   This run was terminated on:   9:15:39   7Nov2020            

=------------------------------------------------------------------------------=
   JOB DONE.
=------------------------------------------------------------------------------=
