
     Program PWSCF v.6.2 (svn rev. 14038) starts on  7Nov2020 at  8:32:24 

     This program is part of the open-source Quantum ESPRESSO suite
     for quantum simulation of materials; please cite
         "P. Giannozzi et al., J. Phys.:Condens. Matter 21 395502 (2009);
         "P. Giannozzi et al., J. Phys.:Condens. Matter 29 465901 (2017);
          URL http://www.quantum-espresso.org", 
     in publications or presentations arising from this work. More details at
     http://www.quantum-espresso.org/quote

     Parallel version (MPI), running on     8 processors

     MPI processes distributed on     1 nodes
     R & G space division:  proc/nbgrp/npool/nimage =       8
     Waiting for input...
     Reading input from standard input
Warning: card &IONS ignored
Warning: card / ignored

     Current dimensions of program PWSCF are:
     Max number of different atomic species (ntypx) = 10
     Max number of k-points (npk) =  40000
     Max angular momentum in pseudopotentials (lmaxx) =  3

     Subspace diagonalization in iterative solution of the eigenvalue problem:
     a serial algorithm will be used


     Parallelization info
     --------------------
     sticks:   dense  smooth     PW     G-vecs:    dense   smooth      PW
     Min         712     712    185                40336    40336    5464
     Max         714     714    187                40337    40337    5470
     Sum        5705    5705   1489               322693   322693   43723



     bravais-lattice index     =            0
     lattice parameter (alat)  =      20.6245  a.u.
     unit-cell volume          =    8773.0332 (a.u.)^3
     number of atoms/cell      =           72
     number of atomic types    =            2
     number of electrons       =       264.00
     number of Kohn-Sham states=          158
     kinetic-energy cutoff     =      42.0000  Ry
     charge density cutoff     =     168.0000  Ry
     convergence threshold     =      1.0E-08
     mixing beta               =       0.3000
     number of iterations used =            8  plain     mixing
     Exchange-correlation      = SLA-PW-PBX-PBC ( 1  4  3  4 0 0)

     celldm(1)=  20.624492  celldm(2)=   0.000000  celldm(3)=   0.000000
     celldm(4)=   0.000000  celldm(5)=   0.000000  celldm(6)=   0.000000

     crystal axes: (cart. coord. in units of alat)
               a(1) = (   1.000000   0.000000   0.000000 )  
               a(2) = (   0.000000   1.000000   0.000000 )  
               a(3) = (   0.000000   0.000000   1.000000 )  

     reciprocal axes: (cart. coord. in units 2 pi/alat)
               b(1) = (  1.000000  0.000000  0.000000 )  
               b(2) = (  0.000000  1.000000  0.000000 )  
               b(3) = (  0.000000  0.000000  1.000000 )  


     PseudoPot. # 1 for Si read from file:
     ./Si.pbe-hgh.UPF
     MD5 check sum: 9a9f0f6e09139bfdb36b03ff6bc35900
     Pseudo is Norm-conserving, Zval =  4.0
     Generated in analytical, separable form
     Using radial grid of 1141 points,  3 beta functions with: 
                l(1) =   0
                l(2) =   0
                l(3) =   1

     PseudoPot. # 2 for H  read from file:
     ./H.pbe-hgh.UPF
     MD5 check sum: 5f350582108a937bec95f27f5610ab08
     Pseudo is Norm-conserving, Zval =  1.0
     Generated in analytical, separable form
     Using radial grid of  929 points,  0 beta functions with: 

     atomic species   valence    mass     pseudopotential
        Si             4.00    28.08000     Si( 1.00)
        H              1.00     1.00784     H ( 1.00)

     No symmetry found


                                    s                        frac. trans.

      isym =  1     identity                                     

 cryst.   s( 1) = (     1          0          0      )
                  (     0          1          0      )
                  (     0          0          1      )

 cart.    s( 1) = (  1.0000000  0.0000000  0.0000000 )
                  (  0.0000000  1.0000000  0.0000000 )
                  (  0.0000000  0.0000000  1.0000000 )


   Cartesian axes

     site n.     atom                  positions (alat units)
         1           Si  tau(   1) = (   0.9928640   0.0060765   0.5351250  )
         2           Si  tau(   2) = (   0.3262760   0.0468884   0.9830150  )
         3           Si  tau(   3) = (   0.3848150   0.3867770   0.2998170  )
         4           Si  tau(   4) = (   0.9056650   0.3119450   0.1211620  )
         5           Si  tau(   5) = (   0.2704590   0.8644710   0.2880720  )
         6           Si  tau(   6) = (   0.3826110   0.6290490   0.5070610  )
         7           Si  tau(   7) = (   0.5975460   0.1889620   0.9806560  )
         8           Si  tau(   8) = (   0.3726080   0.7252610   0.0087659  )
         9           Si  tau(   9) = (   0.4350720   0.0017962   0.5661910  )
        10           Si  tau(  10) = (   0.6963160   0.4828300   0.8549950  )
        11           Si  tau(  11) = (   0.4552210   0.3224000   0.6757830  )
        12           Si  tau(  12) = (   0.3142900   0.8311140   0.4966660  )
        13           Si  tau(  13) = (   0.8704770   0.8070620   0.7594980  )
        14           Si  tau(  14) = (   0.4206000   0.9049120   0.1198320  )
        15           Si  tau(  15) = (   0.1341530   0.1656330   0.2105350  )
        16           Si  tau(  16) = (   0.7391700   0.2156810   0.6296420  )
        17           Si  tau(  17) = (   0.1106460   0.8237310   0.5800660  )
        18           Si  tau(  18) = (   0.9139980   0.7324700   0.5405020  )
        19           Si  tau(  19) = (   0.5591070   0.4808080   0.1545980  )
        20           Si  tau(  20) = (   0.3347660   0.3777080   0.8405680  )
        21           Si  tau(  21) = (   0.8061070   0.9177120   0.4707390  )
        22           Si  tau(  22) = (   0.3697230   0.9894520   0.7794970  )
        23           Si  tau(  23) = (   0.2552000   0.1496150   0.5036400  )
        24           Si  tau(  24) = (   0.6439360   0.4161740   0.6540070  )
        25           Si  tau(  25) = (   0.2064110   0.5155150   0.5639470  )
        26           Si  tau(  26) = (   0.6760210   0.1968210   0.3358040  )
        27           Si  tau(  27) = (   0.3089110   0.0748619   0.3022050  )
        28           Si  tau(  28) = (   0.5885420   0.6168170   0.5794260  )
        29           Si  tau(  29) = (   0.6375710   0.8692020   0.1264610  )
        30           Si  tau(  30) = (   0.7311290   0.5465320   0.2654340  )
        31           Si  tau(  31) = (   0.1385590   0.7290710   0.7811940  )
        32           Si  tau(  32) = (   0.6757970   0.8985560   0.7826360  )
        33           Si  tau(  33) = (   0.7135230   0.0025198   0.9744650  )
        34           Si  tau(  34) = (   0.8979300   0.0902459   0.0846753  )
        35           Si  tau(  35) = (   0.2607920   0.6758680   0.1827300  )
        36           Si  tau(  36) = (   0.5410050   0.5936680   0.9639950  )
        37           Si  tau(  37) = (   0.0356679   0.8692790   0.9207210  )
        38           Si  tau(  38) = (   0.5445690   0.7246050   0.7614790  )
        39           Si  tau(  39) = (   0.3817010   0.2508260   0.0055736  )
        40           Si  tau(  40) = (   0.6535350   0.0150908   0.5989860  )
        41           Si  tau(  41) = (   0.3419880   0.7804660   0.8073600  )
        42           Si  tau(  42) = (   0.0520386   0.5360780   0.8544090  )
        43           Si  tau(  43) = (   0.9885860   0.0258974   0.7559140  )
        44           Si  tau(  44) = (   0.8810360   0.2177680   0.7930670  )
        45           Si  tau(  45) = (   0.7706270   0.3103520   0.9554370  )
        46           Si  tau(  46) = (   0.1051190   0.0689346   0.0020133  )
        47           Si  tau(  47) = (   0.0163633   0.3733460   0.7103010  )
        48           Si  tau(  48) = (   0.9627020   0.3743610   0.4810090  )
        49           Si  tau(  49) = (   0.0686776   0.4484640   0.0619020  )
        50           Si  tau(  50) = (   0.0412133   0.5737800   0.4298160  )
        51           Si  tau(  51) = (   0.0608648   0.6098430   0.2054410  )
        52           Si  tau(  52) = (   0.5394390   0.2584560   0.1817140  )
        53           Si  tau(  53) = (   0.0531385   0.1825920   0.4192400  )
        54           Si  tau(  54) = (   0.2390810   0.3413300   0.1463640  )
        55           Si  tau(  55) = (   0.8560280   0.6203390   0.8695730  )
        56           Si  tau(  56) = (   0.1948010   0.0859568   0.7049810  )
        57           Si  tau(  57) = (   0.4283910   0.5976120   0.2932730  )
        58           Si  tau(  58) = (   0.8041260   0.0333092   0.2742640  )
        59           Si  tau(  59) = (   0.8191210   0.3603150   0.3155720  )
        60           Si  tau(  60) = (   0.6169030   0.6924750   0.3750420  )
        61           Si  tau(  61) = (   0.9431540   0.7701090   0.1097210  )
        62           Si  tau(  62) = (   0.3291620   0.3485500   0.5066670  )
        63           Si  tau(  63) = (   0.7824330   0.8087090   0.2747350  )
        64           Si  tau(  64) = (   0.1467020   0.2503070   0.8359050  )
        65           H   tau(  65) = (   0.8668220   0.6652390   0.0166053  )
        66           H   tau(  66) = (   0.4273870   0.1471980   0.2441290  )
        67           H   tau(  67) = (   0.4381460   0.4914050   0.9071240  )
        68           H   tau(  68) = (   0.8355490   0.2293060   0.5288000  )
        69           H   tau(  69) = (   0.7687460   0.8635950   0.0373755  )
        70           H   tau(  70) = (   0.6355250   0.7437470   0.0516925  )
        71           H   tau(  71) = (   0.7958290   0.6237880   0.1657000  )
        72           H   tau(  72) = (   0.1274100   0.8854240   0.2764190  )

   Crystallographic axes

     site n.     atom                  positions (cryst. coord.)
         1           Si  tau(   1) = (  0.9928640  0.0060765  0.5351250  )
         2           Si  tau(   2) = (  0.3262760  0.0468884  0.9830150  )
         3           Si  tau(   3) = (  0.3848150  0.3867770  0.2998170  )
         4           Si  tau(   4) = (  0.9056650  0.3119450  0.1211620  )
         5           Si  tau(   5) = (  0.2704590  0.8644710  0.2880720  )
         6           Si  tau(   6) = (  0.3826110  0.6290490  0.5070610  )
         7           Si  tau(   7) = (  0.5975460  0.1889620  0.9806560  )
         8           Si  tau(   8) = (  0.3726080  0.7252610  0.0087659  )
         9           Si  tau(   9) = (  0.4350720  0.0017962  0.5661910  )
        10           Si  tau(  10) = (  0.6963160  0.4828300  0.8549950  )
        11           Si  tau(  11) = (  0.4552210  0.3224000  0.6757830  )
        12           Si  tau(  12) = (  0.3142900  0.8311140  0.4966660  )
        13           Si  tau(  13) = (  0.8704770  0.8070620  0.7594980  )
        14           Si  tau(  14) = (  0.4206000  0.9049120  0.1198320  )
        15           Si  tau(  15) = (  0.1341530  0.1656330  0.2105350  )
        16           Si  tau(  16) = (  0.7391700  0.2156810  0.6296420  )
        17           Si  tau(  17) = (  0.1106460  0.8237310  0.5800660  )
        18           Si  tau(  18) = (  0.9139980  0.7324700  0.5405020  )
        19           Si  tau(  19) = (  0.5591070  0.4808080  0.1545980  )
        20           Si  tau(  20) = (  0.3347660  0.3777080  0.8405680  )
        21           Si  tau(  21) = (  0.8061070  0.9177120  0.4707390  )
        22           Si  tau(  22) = (  0.3697230  0.9894520  0.7794970  )
        23           Si  tau(  23) = (  0.2552000  0.1496150  0.5036400  )
        24           Si  tau(  24) = (  0.6439360  0.4161740  0.6540070  )
        25           Si  tau(  25) = (  0.2064110  0.5155150  0.5639470  )
        26           Si  tau(  26) = (  0.6760210  0.1968210  0.3358040  )
        27           Si  tau(  27) = (  0.3089110  0.0748619  0.3022050  )
        28           Si  tau(  28) = (  0.5885420  0.6168170  0.5794260  )
        29           Si  tau(  29) = (  0.6375710  0.8692020  0.1264610  )
        30           Si  tau(  30) = (  0.7311290  0.5465320  0.2654340  )
        31           Si  tau(  31) = (  0.1385590  0.7290710  0.7811940  )
        32           Si  tau(  32) = (  0.6757970  0.8985560  0.7826360  )
        33           Si  tau(  33) = (  0.7135230  0.0025198  0.9744650  )
        34           Si  tau(  34) = (  0.8979300  0.0902459  0.0846753  )
        35           Si  tau(  35) = (  0.2607920  0.6758680  0.1827300  )
        36           Si  tau(  36) = (  0.5410050  0.5936680  0.9639950  )
        37           Si  tau(  37) = (  0.0356679  0.8692790  0.9207210  )
        38           Si  tau(  38) = (  0.5445690  0.7246050  0.7614790  )
        39           Si  tau(  39) = (  0.3817010  0.2508260  0.0055736  )
        40           Si  tau(  40) = (  0.6535350  0.0150908  0.5989860  )
        41           Si  tau(  41) = (  0.3419880  0.7804660  0.8073600  )
        42           Si  tau(  42) = (  0.0520386  0.5360780  0.8544090  )
        43           Si  tau(  43) = (  0.9885860  0.0258974  0.7559140  )
        44           Si  tau(  44) = (  0.8810360  0.2177680  0.7930670  )
        45           Si  tau(  45) = (  0.7706270  0.3103520  0.9554370  )
        46           Si  tau(  46) = (  0.1051190  0.0689346  0.0020133  )
        47           Si  tau(  47) = (  0.0163633  0.3733460  0.7103010  )
        48           Si  tau(  48) = (  0.9627020  0.3743610  0.4810090  )
        49           Si  tau(  49) = (  0.0686776  0.4484640  0.0619020  )
        50           Si  tau(  50) = (  0.0412133  0.5737800  0.4298160  )
        51           Si  tau(  51) = (  0.0608648  0.6098430  0.2054410  )
        52           Si  tau(  52) = (  0.5394390  0.2584560  0.1817140  )
        53           Si  tau(  53) = (  0.0531385  0.1825920  0.4192400  )
        54           Si  tau(  54) = (  0.2390810  0.3413300  0.1463640  )
        55           Si  tau(  55) = (  0.8560280  0.6203390  0.8695730  )
        56           Si  tau(  56) = (  0.1948010  0.0859568  0.7049810  )
        57           Si  tau(  57) = (  0.4283910  0.5976120  0.2932730  )
        58           Si  tau(  58) = (  0.8041260  0.0333092  0.2742640  )
        59           Si  tau(  59) = (  0.8191210  0.3603150  0.3155720  )
        60           Si  tau(  60) = (  0.6169030  0.6924750  0.3750420  )
        61           Si  tau(  61) = (  0.9431540  0.7701090  0.1097210  )
        62           Si  tau(  62) = (  0.3291620  0.3485500  0.5066670  )
        63           Si  tau(  63) = (  0.7824330  0.8087090  0.2747350  )
        64           Si  tau(  64) = (  0.1467020  0.2503070  0.8359050  )
        65           H   tau(  65) = (  0.8668220  0.6652390  0.0166053  )
        66           H   tau(  66) = (  0.4273870  0.1471980  0.2441290  )
        67           H   tau(  67) = (  0.4381460  0.4914050  0.9071240  )
        68           H   tau(  68) = (  0.8355490  0.2293060  0.5288000  )
        69           H   tau(  69) = (  0.7687460  0.8635950  0.0373755  )
        70           H   tau(  70) = (  0.6355250  0.7437470  0.0516925  )
        71           H   tau(  71) = (  0.7958290  0.6237880  0.1657000  )
        72           H   tau(  72) = (  0.1274100  0.8854240  0.2764190  )

     number of k points=    14  Marzari-Vanderbilt smearing, width (Ry)=  0.0500
                       cart. coord. in units 2pi/alat
        k(    1) = (   0.0000000   0.0000000   0.0000000), wk =   0.0740741
        k(    2) = (   0.0000000   0.0000000   0.3333333), wk =   0.1481481
        k(    3) = (   0.0000000   0.3333333   0.3333333), wk =   0.1481481
        k(    4) = (   0.3333333   0.3333333   0.3333333), wk =   0.1481481
        k(    5) = (   0.3333333   0.0000000   0.0000000), wk =   0.1481481
        k(    6) = (   0.0000000   0.3333333   0.0000000), wk =   0.1481481
        k(    7) = (   0.0000000  -0.3333333   0.3333333), wk =   0.1481481
        k(    8) = (   0.3333333   0.0000000  -0.3333333), wk =   0.1481481
        k(    9) = (  -0.3333333   0.0000000  -0.3333333), wk =   0.1481481
        k(   10) = (   0.3333333  -0.3333333   0.0000000), wk =   0.1481481
        k(   11) = (  -0.3333333  -0.3333333   0.0000000), wk =   0.1481481
        k(   12) = (  -0.3333333  -0.3333333   0.3333333), wk =   0.1481481
        k(   13) = (  -0.3333333   0.3333333  -0.3333333), wk =   0.1481481
        k(   14) = (   0.3333333  -0.3333333  -0.3333333), wk =   0.1481481

                       cryst. coord.
        k(    1) = (   0.0000000   0.0000000   0.0000000), wk =   0.0740741
        k(    2) = (   0.0000000   0.0000000   0.3333333), wk =   0.1481481
        k(    3) = (   0.0000000   0.3333333   0.3333333), wk =   0.1481481
        k(    4) = (   0.3333333   0.3333333   0.3333333), wk =   0.1481481
        k(    5) = (   0.3333333   0.0000000   0.0000000), wk =   0.1481481
        k(    6) = (   0.0000000   0.3333333   0.0000000), wk =   0.1481481
        k(    7) = (   0.0000000  -0.3333333   0.3333333), wk =   0.1481481
        k(    8) = (   0.3333333   0.0000000  -0.3333333), wk =   0.1481481
        k(    9) = (  -0.3333333   0.0000000  -0.3333333), wk =   0.1481481
        k(   10) = (   0.3333333  -0.3333333   0.0000000), wk =   0.1481481
        k(   11) = (  -0.3333333  -0.3333333   0.0000000), wk =   0.1481481
        k(   12) = (  -0.3333333  -0.3333333   0.3333333), wk =   0.1481481
        k(   13) = (  -0.3333333   0.3333333  -0.3333333), wk =   0.1481481
        k(   14) = (   0.3333333  -0.3333333  -0.3333333), wk =   0.1481481

     Dense  grid:   322693 G-vectors     FFT dimensions: (  90,  90,  90)

     Dynamical RAM for                 wfc:      12.15 MB

     Dynamical RAM for     wfc (w. buffer):     182.26 MB

     Dynamical RAM for           str. fact:       1.23 MB

     Dynamical RAM for           local pot:       0.00 MB

     Dynamical RAM for          nlocal pot:      24.61 MB

     Dynamical RAM for                qrad:       1.17 MB

     Dynamical RAM for          rho,v,vnew:       4.07 MB

     Dynamical RAM for               rhoin:       1.36 MB

     Dynamical RAM for            rho*nmix:       9.85 MB

     Dynamical RAM for           G-vectors:       2.62 MB

     Dynamical RAM for          h,s,v(r/c):      18.28 MB

     Dynamical RAM for          <psi|beta>:       0.77 MB

     Dynamical RAM for                 psi:      48.60 MB

     Dynamical RAM for                hpsi:      48.60 MB

     Dynamical RAM for      wfcinit/wfcrot:      42.20 MB

     Estimated static dynamical RAM per process >     232.72 MB

     Estimated max dynamical RAM per process >     348.98 MB

     Estimated total dynamical RAM >       2.73 GB

     Initial potential from superposition of free atoms

     starting charge  263.96413, renormalised to  264.00000
     Starting wfc are  264 randomized atomic wfcs

     total cpu time spent up to now is       25.2 secs

     Self-consistent Calculation

     iteration #  1     ecut=    42.00 Ry     beta= 0.30
     Davidson diagonalization with overlap
     ethr =  1.00E-02,  avg # of iterations =  3.0

     Threshold (ethr) on eigenvalues was too large:
     Diagonalizing with lowered threshold

     Davidson diagonalization with overlap
     ethr =  7.68E-04,  avg # of iterations =  2.1

     total cpu time spent up to now is      121.7 secs

     total energy              =    -511.21731022 Ry
     Harris-Foulkes estimate   =    -511.70823639 Ry
     estimated scf accuracy    <       2.02572872 Ry

     iteration #  2     ecut=    42.00 Ry     beta= 0.30
     Davidson diagonalization with overlap
     ethr =  7.67E-04,  avg # of iterations =  2.6

     total cpu time spent up to now is      163.9 secs

     total energy              =    -511.14877222 Ry
     Harris-Foulkes estimate   =    -511.43098534 Ry
     estimated scf accuracy    <       1.16658740 Ry

     iteration #  3     ecut=    42.00 Ry     beta= 0.30
     Davidson diagonalization with overlap
     ethr =  4.42E-04,  avg # of iterations =  3.7

     total cpu time spent up to now is      215.1 secs

     total energy              =    -511.16271329 Ry
     Harris-Foulkes estimate   =    -511.40069921 Ry
     estimated scf accuracy    <       1.23012434 Ry

     iteration #  4     ecut=    42.00 Ry     beta= 0.30
     Davidson diagonalization with overlap
     ethr =  4.42E-04,  avg # of iterations =  2.1

     total cpu time spent up to now is      259.0 secs

     total energy              =    -511.24226557 Ry
     Harris-Foulkes estimate   =    -511.28690203 Ry
     estimated scf accuracy    <       0.20272476 Ry

     iteration #  5     ecut=    42.00 Ry     beta= 0.30
     Davidson diagonalization with overlap
     ethr =  7.68E-05,  avg # of iterations =  5.1

     total cpu time spent up to now is      310.1 secs

     total energy              =    -511.25906974 Ry
     Harris-Foulkes estimate   =    -511.27471570 Ry
     estimated scf accuracy    <       0.07499454 Ry

     iteration #  6     ecut=    42.00 Ry     beta= 0.30
     Davidson diagonalization with overlap
     ethr =  2.84E-05,  avg # of iterations =  3.4

     total cpu time spent up to now is      361.7 secs

     total energy              =    -511.26575087 Ry
     Harris-Foulkes estimate   =    -511.27069539 Ry
     estimated scf accuracy    <       0.02672449 Ry

     iteration #  7     ecut=    42.00 Ry     beta= 0.30
     Davidson diagonalization with overlap
     ethr =  1.01E-05,  avg # of iterations =  2.8

     total cpu time spent up to now is      407.5 secs

     total energy              =    -511.26759368 Ry
     Harris-Foulkes estimate   =    -511.26875716 Ry
     estimated scf accuracy    <       0.00517082 Ry

     iteration #  8     ecut=    42.00 Ry     beta= 0.30
     Davidson diagonalization with overlap
     ethr =  1.96E-06,  avg # of iterations =  8.1

     total cpu time spent up to now is      473.4 secs

     total energy              =    -511.26801921 Ry
     Harris-Foulkes estimate   =    -511.26877318 Ry
     estimated scf accuracy    <       0.00408902 Ry

     iteration #  9     ecut=    42.00 Ry     beta= 0.30
     Davidson diagonalization with overlap
     ethr =  1.55E-06,  avg # of iterations =  2.1

     total cpu time spent up to now is      522.5 secs

     total energy              =    -511.26836679 Ry
     Harris-Foulkes estimate   =    -511.26846814 Ry
     estimated scf accuracy    <       0.00053953 Ry

     iteration # 10     ecut=    42.00 Ry     beta= 0.30
     Davidson diagonalization with overlap
     ethr =  2.04E-07,  avg # of iterations =  3.0

     total cpu time spent up to now is      571.5 secs

     total energy              =    -511.26840990 Ry
     Harris-Foulkes estimate   =    -511.26845111 Ry
     estimated scf accuracy    <       0.00018175 Ry

     iteration # 11     ecut=    42.00 Ry     beta= 0.30
     Davidson diagonalization with overlap
     ethr =  6.88E-08,  avg # of iterations =  3.0

     total cpu time spent up to now is      619.5 secs

     total energy              =    -511.26842445 Ry
     Harris-Foulkes estimate   =    -511.26844933 Ry
     estimated scf accuracy    <       0.00013828 Ry

     iteration # 12     ecut=    42.00 Ry     beta= 0.30
     Davidson diagonalization with overlap
     ethr =  5.24E-08,  avg # of iterations =  2.1

     total cpu time spent up to now is      669.7 secs

     total energy              =    -511.26843702 Ry
     Harris-Foulkes estimate   =    -511.26843817 Ry
     estimated scf accuracy    <       0.00001114 Ry

     iteration # 13     ecut=    42.00 Ry     beta= 0.30
     Davidson diagonalization with overlap
     ethr =  4.22E-09,  avg # of iterations =  3.0

     total cpu time spent up to now is      721.2 secs

     total energy              =    -511.26843822 Ry
     Harris-Foulkes estimate   =    -511.26843892 Ry
     estimated scf accuracy    <       0.00000409 Ry

     iteration # 14     ecut=    42.00 Ry     beta= 0.30
     Davidson diagonalization with overlap
     ethr =  1.55E-09,  avg # of iterations =  3.0

     total cpu time spent up to now is      769.1 secs

     total energy              =    -511.26843854 Ry
     Harris-Foulkes estimate   =    -511.26843896 Ry
     estimated scf accuracy    <       0.00000260 Ry

     iteration # 15     ecut=    42.00 Ry     beta= 0.30
     Davidson diagonalization with overlap
     ethr =  9.83E-10,  avg # of iterations =  2.9

     total cpu time spent up to now is      814.8 secs

     total energy              =    -511.26843886 Ry
     Harris-Foulkes estimate   =    -511.26843886 Ry
     estimated scf accuracy    <       0.00000044 Ry

     iteration # 16     ecut=    42.00 Ry     beta= 0.30
     Davidson diagonalization with overlap
     ethr =  1.67E-10,  avg # of iterations =  3.0

     total cpu time spent up to now is      867.7 secs

     total energy              =    -511.26843888 Ry
     Harris-Foulkes estimate   =    -511.26843893 Ry
     estimated scf accuracy    <       0.00000026 Ry

     iteration # 17     ecut=    42.00 Ry     beta= 0.30
     Davidson diagonalization with overlap
     ethr =  9.92E-11,  avg # of iterations =  3.0

     total cpu time spent up to now is      916.2 secs

     total energy              =    -511.26843892 Ry
     Harris-Foulkes estimate   =    -511.26843892 Ry
     estimated scf accuracy    <       0.00000013 Ry

     iteration # 18     ecut=    42.00 Ry     beta= 0.30
     Davidson diagonalization with overlap
     ethr =  4.83E-11,  avg # of iterations =  2.9

     total cpu time spent up to now is      958.8 secs

     total energy              =    -511.26843893 Ry
     Harris-Foulkes estimate   =    -511.26843893 Ry
     estimated scf accuracy    <       0.00000002 Ry

     iteration # 19     ecut=    42.00 Ry     beta= 0.30
     Davidson diagonalization with overlap
     ethr =  8.53E-12,  avg # of iterations =  3.0

     total cpu time spent up to now is     1006.6 secs

     End of self-consistent calculation

          k = 0.0000 0.0000 0.0000 ( 40339 PWs)   bands (ev):

    -6.1528  -5.4260  -5.3806  -5.1299  -4.9282  -4.9079  -4.6586  -4.5010
    -4.3311  -4.2321  -4.1403  -4.0319  -3.9798  -3.9084  -3.8302  -3.7445
    -3.6325  -3.4816  -3.4339  -3.1111  -3.0534  -2.9896  -2.9473  -2.8207
    -2.7239  -2.4159  -2.1780  -2.1572  -1.8895  -1.7420  -1.5965  -1.5118
    -1.4318  -1.3478  -1.2462  -1.1940  -1.0966  -0.9596  -0.9094  -0.8634
    -0.7630  -0.6471  -0.5602  -0.4369  -0.3733  -0.2297  -0.1951  -0.1083
     0.0150   0.0528   0.1857   0.2495   0.3817   0.4679   0.6475   0.6668
     0.8443   0.8697   1.0500   1.1408   1.2318   1.3852   1.4476   1.5521
     1.5703   1.7199   1.7638   1.8715   1.9320   2.0440   2.0559   2.1725
     2.2001   2.3154   2.4018   2.4356   2.4888   2.5182   2.6755   2.7582
     3.0066   3.0829   3.1063   3.1953   3.3496   3.3954   3.4175   3.4712
     3.5494   3.6443   3.6825   3.7288   3.8542   3.9054   3.9166   3.9397
     4.0217   4.0709   4.1076   4.1456   4.1760   4.2348   4.2535   4.2912
     4.3484   4.3596   4.5173   4.5720   4.5987   4.6184   4.6742   4.8215
     4.8409   4.8748   4.9191   5.0513   5.0623   5.1395   5.2005   5.2790
     5.4006   5.4353   5.5769   5.6086   5.6272   5.8696   5.9248   5.9871
     6.1320   6.1560   6.1964   6.3498   6.4132   6.4464   6.5295   6.6201
     6.7836   6.8259   6.8796   7.0441   7.0705   7.2081   7.2299   7.3484
     7.4054   7.4937   7.6165   7.6895   7.6979   7.7954   7.8748   7.9071
     8.0225   8.0820   8.1263   8.1483   8.1878   8.2427

     occupation numbers 
     1.0000   1.0000   1.0000   1.0000   1.0000   1.0000   1.0000   1.0000
     1.0000   1.0000   1.0000   1.0000   1.0000   1.0000   1.0000   1.0000
     1.0000   1.0000   1.0000   1.0000   1.0000   1.0000   1.0000   1.0000
     1.0000   1.0000   1.0000   1.0000   1.0000   1.0000   1.0000   1.0000
     1.0000   1.0000   1.0000   1.0000   1.0000   1.0000   1.0000   1.0000
     1.0000   1.0000   1.0000   1.0000   1.0000   1.0000   1.0000   1.0000
     1.0000   1.0000   1.0000   1.0000   1.0000   1.0000   1.0000   1.0000
     1.0000   1.0000   1.0000   1.0000   1.0000   1.0000   1.0000   1.0000
     1.0000   1.0000   1.0000   1.0000   1.0000   1.0000   1.0000   1.0000
     1.0000   1.0000   1.0000   1.0000   1.0000   1.0000   1.0000   1.0000
     1.0000   1.0000   1.0000   1.0000   1.0000   1.0000   1.0000   1.0000
     1.0000   1.0000   1.0000   1.0000   1.0000   1.0000   1.0001   1.0001
     1.0001   1.0002   1.0002   1.0003   1.0004   1.0006   1.0007   1.0009
     1.0014   1.0015   1.0039   1.0054   1.0062   1.0069   1.0092   1.0183
     1.0199   1.0228   1.0272   1.0428   1.0442   1.0547   1.0631   1.0729
     1.0826   1.0833   1.0713   1.0646   1.0599   0.9379   0.8942   0.8388
     0.6908   0.6646   0.6201   0.4525   0.3876   0.3553   0.2806   0.2105
     0.1155   0.0972   0.0773   0.0356   0.0311   0.0147   0.0130   0.0063
     0.0044   0.0024   0.0010   0.0006   0.0005   0.0002   0.0001   0.0001
     0.0000   0.0000   0.0000   0.0000   0.0000   0.0000

          k = 0.0000 0.0000 0.3333 ( 40358 PWs)   bands (ev):

    -6.0548  -5.6809  -5.3404  -5.0602  -4.9285  -4.7960  -4.6824  -4.6175
    -4.5291  -4.2643  -4.2042  -4.0487  -3.8792  -3.8047  -3.6711  -3.6280
    -3.5232  -3.4019  -3.2944  -3.2483  -3.1986  -2.9802  -2.8584  -2.6591
    -2.5678  -2.3588  -2.1992  -2.1296  -1.9720  -1.8793  -1.8074  -1.6870
    -1.6184  -1.4683  -1.3776  -1.2328  -1.1939  -1.0282  -0.9959  -0.9079
    -0.8103  -0.6775  -0.6265  -0.4515  -0.3689  -0.2722  -0.1766  -0.0818
     0.0451   0.1193   0.2862   0.3587   0.4627   0.5400   0.6710   0.8553
     0.9095   1.0644   1.1289   1.2015   1.3045   1.4673   1.5240   1.6291
     1.7099   1.7737   1.8939   1.9389   2.0169   2.0598   2.1815   2.2905
     2.3643   2.4086   2.4814   2.5498   2.6095   2.6529   2.7137   2.8039
     2.9132   2.9777   3.0143   3.0912   3.1774   3.2185   3.2612   3.3269
     3.4017   3.4313   3.4776   3.5729   3.6030   3.7321   3.7717   3.8125
     3.8479   3.9087   3.9907   4.0494   4.1109   4.1248   4.1775   4.2775
     4.3358   4.3945   4.4465   4.5428   4.6073   4.6425   4.7658   4.7739
     4.8558   4.9185   4.9578   5.0225   5.1235   5.2026   5.2900   5.3221
     5.3808   5.4732   5.5971   5.6570   5.7204   5.7948   5.9136   6.0417
     6.0872   6.2182   6.2998   6.3901   6.4501   6.4850   6.6215   6.6959
     6.7462   6.8433   6.9904   7.0522   7.1098   7.2464   7.2954   7.3325
     7.4179   7.5369   7.6024   7.6752   7.7416   7.7976   7.8241   7.9457
     7.9744   8.0277   8.1371   8.1993   8.2429   8.2565

     occupation numbers 
     1.0000   1.0000   1.0000   1.0000   1.0000   1.0000   1.0000   1.0000
     1.0000   1.0000   1.0000   1.0000   1.0000   1.0000   1.0000   1.0000
     1.0000   1.0000   1.0000   1.0000   1.0000   1.0000   1.0000   1.0000
     1.0000   1.0000   1.0000   1.0000   1.0000   1.0000   1.0000   1.0000
     1.0000   1.0000   1.0000   1.0000   1.0000   1.0000   1.0000   1.0000
     1.0000   1.0000   1.0000   1.0000   1.0000   1.0000   1.0000   1.0000
     1.0000   1.0000   1.0000   1.0000   1.0000   1.0000   1.0000   1.0000
     1.0000   1.0000   1.0000   1.0000   1.0000   1.0000   1.0000   1.0000
     1.0000   1.0000   1.0000   1.0000   1.0000   1.0000   1.0000   1.0000
     1.0000   1.0000   1.0000   1.0000   1.0000   1.0000   1.0000   1.0000
     1.0000   1.0000   1.0000   1.0000   1.0000   1.0000   1.0000   1.0000
     1.0000   1.0000   1.0000   1.0000   1.0000   1.0000   1.0000   1.0000
     1.0000   1.0000   1.0001   1.0002   1.0003   1.0003   1.0004   1.0009
     1.0013   1.0019   1.0026   1.0045   1.0065   1.0078   1.0143   1.0148
     1.0211   1.0271   1.0313   1.0391   1.0525   1.0634   1.0742   1.0774
     1.0817   1.0826   1.0672   1.0510   1.0266   0.9878   0.9035   0.7856
     0.7387   0.5959   0.5061   0.4108   0.3517   0.3195   0.2095   0.1615
     0.1338   0.0903   0.0464   0.0341   0.0253   0.0118   0.0088   0.0070
     0.0040   0.0018   0.0011   0.0006   0.0004   0.0002   0.0002   0.0001
     0.0001   0.0000   0.0000   0.0000   0.0000   0.0000

          k = 0.0000 0.3333 0.3333 ( 40312 PWs)   bands (ev):

    -5.9480  -5.6731  -5.5079  -5.1544  -5.1176  -4.7324  -4.6340  -4.5339
    -4.4229  -4.2891  -4.1705  -4.0121  -3.9625  -3.8073  -3.6776  -3.6090
    -3.4079  -3.3332  -3.2153  -3.0928  -3.0030  -2.9133  -2.7909  -2.7424
    -2.6178  -2.3907  -2.3366  -2.2521  -2.0806  -2.0017  -1.9282  -1.7634
    -1.7346  -1.5712  -1.4436  -1.2741  -1.2173  -1.0684  -0.9413  -0.9205
    -0.8180  -0.7247  -0.6208  -0.4531  -0.3718  -0.2852  -0.1777  -0.0883
     0.0703   0.1643   0.3343   0.4568   0.5250   0.6325   0.7654   0.8668
     1.0421   1.1645   1.1854   1.3196   1.4087   1.4700   1.5680   1.6576
     1.7412   1.8287   1.9179   2.0105   2.0703   2.1412   2.2026   2.3186
     2.3657   2.4327   2.4888   2.5716   2.6378   2.7080   2.7705   2.7791
     2.8717   2.9502   3.0066   3.0778   3.1265   3.1779   3.2194   3.2735
     3.3379   3.3878   3.4689   3.5158   3.5727   3.6238   3.6941   3.7558
     3.7993   3.8441   3.9695   3.9993   4.0860   4.1309   4.1464   4.2858
     4.3102   4.3654   4.4335   4.4792   4.5376   4.6251   4.6680   4.7392
     4.7929   4.8272   4.8905   4.9906   5.0455   5.0931   5.1562   5.2842
     5.4415   5.4873   5.5368   5.6171   5.6565   5.7758   5.8104   5.9521
     6.0961   6.1834   6.3187   6.3706   6.4824   6.6018   6.6717   6.7432
     6.8061   6.9463   6.9862   7.0831   7.1683   7.2581   7.3312   7.3565
     7.4736   7.5381   7.6197   7.6511   7.7737   7.8787   7.9315   8.0095
     8.0790   8.0917   8.1642   8.2313   8.2681   8.3413

     occupation numbers 
     1.0000   1.0000   1.0000   1.0000   1.0000   1.0000   1.0000   1.0000
     1.0000   1.0000   1.0000   1.0000   1.0000   1.0000   1.0000   1.0000
     1.0000   1.0000   1.0000   1.0000   1.0000   1.0000   1.0000   1.0000
     1.0000   1.0000   1.0000   1.0000   1.0000   1.0000   1.0000   1.0000
     1.0000   1.0000   1.0000   1.0000   1.0000   1.0000   1.0000   1.0000
     1.0000   1.0000   1.0000   1.0000   1.0000   1.0000   1.0000   1.0000
     1.0000   1.0000   1.0000   1.0000   1.0000   1.0000   1.0000   1.0000
     1.0000   1.0000   1.0000   1.0000   1.0000   1.0000   1.0000   1.0000
     1.0000   1.0000   1.0000   1.0000   1.0000   1.0000   1.0000   1.0000
     1.0000   1.0000   1.0000   1.0000   1.0000   1.0000   1.0000   1.0000
     1.0000   1.0000   1.0000   1.0000   1.0000   1.0000   1.0000   1.0000
     1.0000   1.0000   1.0000   1.0000   1.0000   1.0000   1.0000   1.0000
     1.0000   1.0000   1.0001   1.0001   1.0002   1.0003   1.0003   1.0009
     1.0011   1.0015   1.0024   1.0031   1.0044   1.0071   1.0089   1.0126
     1.0161   1.0187   1.0243   1.0351   1.0420   1.0483   1.0570   1.0735
     1.0833   1.0820   1.0775   1.0625   1.0512   0.9988   0.9783   0.8707
     0.7293   0.6344   0.4856   0.4308   0.3217   0.2236   0.1762   0.1353
     0.1055   0.0572   0.0473   0.0291   0.0184   0.0110   0.0070   0.0060
     0.0028   0.0018   0.0010   0.0008   0.0003   0.0001   0.0001   0.0000
     0.0000   0.0000   0.0000   0.0000   0.0000   0.0000

          k = 0.3333 0.3333 0.3333 ( 40314 PWs)   bands (ev):

    -5.8488  -5.6809  -5.4807  -5.2828  -5.1203  -5.0061  -4.8214  -4.6311
    -4.2996  -4.1465  -3.9687  -3.8814  -3.6774  -3.6444  -3.6137  -3.5182
    -3.4738  -3.3780  -3.2623  -3.1644  -2.9663  -2.8934  -2.7826  -2.7193
    -2.6758  -2.4977  -2.4676  -2.3177  -2.2099  -2.1512  -1.9838  -1.8729
    -1.6975  -1.6073  -1.5363  -1.3439  -1.2938  -1.1587  -0.9723  -0.8516
    -0.7656  -0.6892  -0.5271  -0.4654  -0.3746  -0.2014  -0.0593   0.0467
     0.1765   0.2621   0.3355   0.4518   0.5609   0.6586   0.7880   0.8795
     0.9874   1.1167   1.1988   1.3006   1.3823   1.5201   1.5813   1.6629
     1.7885   1.8476   1.9216   2.0542   2.0987   2.1666   2.2289   2.3094
     2.3904   2.4371   2.5011   2.6060   2.6505   2.6768   2.7685   2.8765
     2.9352   2.9639   3.0333   3.0835   3.1406   3.1897   3.2222   3.3044
     3.3503   3.3847   3.4649   3.5525   3.5738   3.6183   3.6928   3.7501
     3.7888   3.8074   3.8755   3.9762   3.9896   4.0662   4.1457   4.1838
     4.2888   4.3484   4.4089   4.4247   4.4746   4.5443   4.6118   4.6922
     4.7455   4.7531   4.9103   4.9420   4.9990   5.0600   5.1141   5.1932
     5.3414   5.4373   5.4818   5.5587   5.7081   5.8012   5.9192   5.9932
     6.0413   6.1589   6.2842   6.3727   6.4796   6.5389   6.5679   6.7464
     6.8382   6.8976   6.9971   7.0750   7.1800   7.3269   7.3566   7.4118
     7.4540   7.5497   7.6116   7.7031   7.7902   7.8886   7.9234   8.0154
     8.0757   8.1140   8.1623   8.2634   8.3111   8.3812

     occupation numbers 
     1.0000   1.0000   1.0000   1.0000   1.0000   1.0000   1.0000   1.0000
     1.0000   1.0000   1.0000   1.0000   1.0000   1.0000   1.0000   1.0000
     1.0000   1.0000   1.0000   1.0000   1.0000   1.0000   1.0000   1.0000
     1.0000   1.0000   1.0000   1.0000   1.0000   1.0000   1.0000   1.0000
     1.0000   1.0000   1.0000   1.0000   1.0000   1.0000   1.0000   1.0000
     1.0000   1.0000   1.0000   1.0000   1.0000   1.0000   1.0000   1.0000
     1.0000   1.0000   1.0000   1.0000   1.0000   1.0000   1.0000   1.0000
     1.0000   1.0000   1.0000   1.0000   1.0000   1.0000   1.0000   1.0000
     1.0000   1.0000   1.0000   1.0000   1.0000   1.0000   1.0000   1.0000
     1.0000   1.0000   1.0000   1.0000   1.0000   1.0000   1.0000   1.0000
     1.0000   1.0000   1.0000   1.0000   1.0000   1.0000   1.0000   1.0000
     1.0000   1.0000   1.0000   1.0000   1.0000   1.0000   1.0000   1.0000
     1.0000   1.0000   1.0000   1.0001   1.0001   1.0002   1.0003   1.0004
     1.0009   1.0014   1.0020   1.0023   1.0031   1.0046   1.0066   1.0100
     1.0130   1.0135   1.0263   1.0296   1.0361   1.0439   1.0512   1.0621
     1.0791   1.0833   1.0823   1.0744   1.0319   0.9840   0.8988   0.8331
     0.7860   0.6614   0.5230   0.4286   0.3244   0.2728   0.2493   0.1336
     0.0923   0.0714   0.0449   0.0304   0.0172   0.0072   0.0060   0.0042
     0.0032   0.0016   0.0010   0.0005   0.0003   0.0001   0.0001   0.0000
     0.0000   0.0000   0.0000   0.0000   0.0000   0.0000

          k = 0.3333 0.0000 0.0000 ( 40358 PWs)   bands (ev):

    -6.0476  -5.7532  -5.1736  -5.0404  -4.9218  -4.8352  -4.7404  -4.6457
    -4.5011  -4.4538  -4.1131  -3.9972  -3.8760  -3.8048  -3.7050  -3.5773
    -3.5103  -3.4241  -3.3829  -3.2072  -3.1119  -2.9922  -2.8275  -2.7636
    -2.4209  -2.2970  -2.2644  -2.1201  -2.0306  -1.9495  -1.8358  -1.7233
    -1.5987  -1.4935  -1.4112  -1.3700  -1.1902  -1.0496  -0.9137  -0.8362
    -0.7176  -0.6405  -0.5430  -0.3795  -0.3117  -0.2442  -0.1744  -0.0520
     0.0650   0.1106   0.2206   0.3630   0.4313   0.5257   0.6790   0.7933
     0.9314   1.0043   1.0942   1.2342   1.3487   1.4574   1.5311   1.6012
     1.7133   1.7683   1.7771   1.9016   1.9750   2.0661   2.1876   2.2384
     2.2699   2.3354   2.3780   2.5327   2.5908   2.6182   2.7448   2.7597
     2.8526   2.9464   3.0328   3.0649   3.1213   3.2798   3.3038   3.3880
     3.4438   3.4659   3.5717   3.6210   3.6668   3.7187   3.7683   3.8388
     3.8791   3.9866   4.0602   4.0856   4.1646   4.2053   4.2531   4.3007
     4.3388   4.4381   4.4986   4.5516   4.5975   4.6422   4.7677   4.7912
     4.8485   4.9423   4.9689   5.0461   5.0756   5.1895   5.2237   5.3209
     5.3944   5.4566   5.5493   5.6385   5.7553   5.8380   5.9671   6.0457
     6.1041   6.1704   6.2779   6.3401   6.4418   6.5214   6.6207   6.6787
     6.7590   6.8342   6.9569   7.0234   7.1103   7.2139   7.3350   7.3707
     7.4412   7.4856   7.5325   7.6114   7.7137   7.7968   7.8705   7.9167
     8.0244   8.0698   8.0921   8.1326   8.1624   8.2642

     occupation numbers 
     1.0000   1.0000   1.0000   1.0000   1.0000   1.0000   1.0000   1.0000
     1.0000   1.0000   1.0000   1.0000   1.0000   1.0000   1.0000   1.0000
     1.0000   1.0000   1.0000   1.0000   1.0000   1.0000   1.0000   1.0000
     1.0000   1.0000   1.0000   1.0000   1.0000   1.0000   1.0000   1.0000
     1.0000   1.0000   1.0000   1.0000   1.0000   1.0000   1.0000   1.0000
     1.0000   1.0000   1.0000   1.0000   1.0000   1.0000   1.0000   1.0000
     1.0000   1.0000   1.0000   1.0000   1.0000   1.0000   1.0000   1.0000
     1.0000   1.0000   1.0000   1.0000   1.0000   1.0000   1.0000   1.0000
     1.0000   1.0000   1.0000   1.0000   1.0000   1.0000   1.0000   1.0000
     1.0000   1.0000   1.0000   1.0000   1.0000   1.0000   1.0000   1.0000
     1.0000   1.0000   1.0000   1.0000   1.0000   1.0000   1.0000   1.0000
     1.0000   1.0000   1.0000   1.0000   1.0000   1.0000   1.0000   1.0000
     1.0000   1.0001   1.0002   1.0002   1.0004   1.0005   1.0007   1.0010
     1.0013   1.0024   1.0035   1.0048   1.0062   1.0078   1.0144   1.0160
     1.0205   1.0296   1.0326   1.0421   1.0460   1.0616   1.0662   1.0773
     1.0824   1.0831   1.0759   1.0567   1.0097   0.9603   0.8572   0.7815
     0.7208   0.6488   0.5299   0.4628   0.3597   0.2875   0.2100   0.1718
     0.1273   0.0939   0.0544   0.0394   0.0252   0.0142   0.0069   0.0055
     0.0034   0.0026   0.0018   0.0010   0.0005   0.0002   0.0001   0.0001
     0.0000   0.0000   0.0000   0.0000   0.0000   0.0000

          k = 0.0000 0.3333 0.0000 ( 40358 PWs)   bands (ev):

    -6.0496  -5.6928  -5.2844  -5.1895  -4.9375  -4.7473  -4.6291  -4.5581
    -4.4939  -4.3168  -4.1720  -4.0689  -3.9208  -3.8554  -3.7350  -3.6367
    -3.4883  -3.4364  -3.2867  -3.1981  -3.1307  -2.9507  -2.8476  -2.7344
    -2.5411  -2.3854  -2.1886  -2.1579  -2.0210  -1.9418  -1.7712  -1.6581
    -1.5733  -1.4853  -1.3479  -1.2452  -1.1784  -1.0501  -0.9613  -0.9219
    -0.7816  -0.6793  -0.5603  -0.4559  -0.3902  -0.2557  -0.1549  -0.0032
     0.0197   0.1617   0.1849   0.3374   0.4728   0.5718   0.6631   0.8024
     0.9049   1.0179   1.0900   1.2381   1.3734   1.4111   1.4810   1.5792
     1.6700   1.7481   1.8389   1.9072   1.9703   2.1476   2.2193   2.2981
     2.3698   2.4259   2.5035   2.5409   2.5971   2.6944   2.7565   2.7854
     2.8723   2.9257   2.9977   3.0248   3.1015   3.2251   3.2969   3.3609
     3.4377   3.4794   3.5601   3.5823   3.6510   3.7374   3.8066   3.8387
     3.8869   3.9759   4.0281   4.0487   4.1523   4.2122   4.2612   4.3072
     4.3832   4.4058   4.4546   4.5423   4.6134   4.6530   4.7353   4.7606
     4.8474   4.8829   4.9125   4.9949   5.0080   5.0670   5.1225   5.2431
     5.3598   5.4251   5.5372   5.6440   5.7021   5.8258   5.9378   5.9941
     6.0958   6.1637   6.3275   6.4165   6.5198   6.6013   6.6215   6.7106
     6.7975   6.8406   7.0298   7.1027   7.1166   7.2080   7.3153   7.3593
     7.4583   7.5123   7.6323   7.6579   7.7523   7.8048   7.8214   7.8957
     8.0158   8.0805   8.1298   8.2039   8.2638   8.3080

     occupation numbers 
     1.0000   1.0000   1.0000   1.0000   1.0000   1.0000   1.0000   1.0000
     1.0000   1.0000   1.0000   1.0000   1.0000   1.0000   1.0000   1.0000
     1.0000   1.0000   1.0000   1.0000   1.0000   1.0000   1.0000   1.0000
     1.0000   1.0000   1.0000   1.0000   1.0000   1.0000   1.0000   1.0000
     1.0000   1.0000   1.0000   1.0000   1.0000   1.0000   1.0000   1.0000
     1.0000   1.0000   1.0000   1.0000   1.0000   1.0000   1.0000   1.0000
     1.0000   1.0000   1.0000   1.0000   1.0000   1.0000   1.0000   1.0000
     1.0000   1.0000   1.0000   1.0000   1.0000   1.0000   1.0000   1.0000
     1.0000   1.0000   1.0000   1.0000   1.0000   1.0000   1.0000   1.0000
     1.0000   1.0000   1.0000   1.0000   1.0000   1.0000   1.0000   1.0000
     1.0000   1.0000   1.0000   1.0000   1.0000   1.0000   1.0000   1.0000
     1.0000   1.0000   1.0000   1.0000   1.0000   1.0000   1.0000   1.0000
     1.0000   1.0001   1.0001   1.0002   1.0003   1.0005   1.0008   1.0011
     1.0017   1.0020   1.0027   1.0045   1.0067   1.0082   1.0124   1.0139
     1.0204   1.0236   1.0265   1.0357   1.0373   1.0448   1.0524   1.0686
     1.0805   1.0832   1.0775   1.0551   1.0344   0.9684   0.8831   0.8322
     0.7296   0.6562   0.4762   0.3844   0.2888   0.2240   0.2095   0.1530
     0.1092   0.0914   0.0382   0.0263   0.0244   0.0147   0.0078   0.0059
     0.0031   0.0021   0.0009   0.0007   0.0003   0.0002   0.0002   0.0001
     0.0000   0.0000   0.0000   0.0000   0.0000   0.0000

          k = 0.0000-0.3333 0.3333 ( 40312 PWs)   bands (ev):

    -5.9528  -5.6425  -5.5330  -5.1989  -5.0753  -4.7518  -4.6207  -4.5397
    -4.3348  -4.3100  -4.2218  -4.0195  -3.9149  -3.8408  -3.7508  -3.6026
    -3.3669  -3.2892  -3.1883  -3.0837  -3.0642  -2.9336  -2.8145  -2.6681
    -2.5468  -2.4580  -2.4033  -2.3181  -2.1167  -1.9618  -1.8497  -1.8152
    -1.6301  -1.4775  -1.3877  -1.3159  -1.2146  -1.1321  -1.0329  -0.9371
    -0.8582  -0.7499  -0.6421  -0.5224  -0.2999  -0.2349  -0.1780  -0.0115
     0.0414   0.1698   0.3518   0.4562   0.5708   0.6908   0.7617   0.8355
     1.0409   1.1458   1.2199   1.2827   1.3796   1.4162   1.5981   1.6424
     1.7405   1.8242   1.8718   2.0106   2.0739   2.1655   2.2199   2.2872
     2.3408   2.3859   2.4860   2.5482   2.6550   2.6903   2.7769   2.8240
     2.8774   2.9341   3.0026   3.0443   3.1148   3.1728   3.2981   3.3562
     3.3991   3.4362   3.4928   3.5206   3.5882   3.6668   3.6962   3.7952
     3.8268   3.8486   3.9575   3.9795   4.0408   4.1186   4.1419   4.1716
     4.2739   4.3106   4.3640   4.4510   4.6101   4.6435   4.6731   4.7206
     4.7933   4.8600   4.8997   4.9745   5.0259   5.1039   5.1805   5.3066
     5.3768   5.4445   5.5478   5.5858   5.7068   5.7845   5.8292   5.9381
     6.1017   6.2137   6.3077   6.3708   6.4710   6.6084   6.6708   6.7317
     6.8524   6.8954   6.9803   7.0923   7.1660   7.2229   7.3364   7.3608
     7.4909   7.5385   7.6362   7.6991   7.7515   7.8411   7.9535   8.0069
     8.0674   8.1263   8.1891   8.2445   8.3015   8.3726

     occupation numbers 
     1.0000   1.0000   1.0000   1.0000   1.0000   1.0000   1.0000   1.0000
     1.0000   1.0000   1.0000   1.0000   1.0000   1.0000   1.0000   1.0000
     1.0000   1.0000   1.0000   1.0000   1.0000   1.0000   1.0000   1.0000
     1.0000   1.0000   1.0000   1.0000   1.0000   1.0000   1.0000   1.0000
     1.0000   1.0000   1.0000   1.0000   1.0000   1.0000   1.0000   1.0000
     1.0000   1.0000   1.0000   1.0000   1.0000   1.0000   1.0000   1.0000
     1.0000   1.0000   1.0000   1.0000   1.0000   1.0000   1.0000   1.0000
     1.0000   1.0000   1.0000   1.0000   1.0000   1.0000   1.0000   1.0000
     1.0000   1.0000   1.0000   1.0000   1.0000   1.0000   1.0000   1.0000
     1.0000   1.0000   1.0000   1.0000   1.0000   1.0000   1.0000   1.0000
     1.0000   1.0000   1.0000   1.0000   1.0000   1.0000   1.0000   1.0000
     1.0000   1.0000   1.0000   1.0000   1.0000   1.0000   1.0000   1.0000
     1.0000   1.0000   1.0001   1.0001   1.0001   1.0003   1.0003   1.0004
     1.0008   1.0011   1.0015   1.0027   1.0066   1.0079   1.0091   1.0115
     1.0162   1.0215   1.0252   1.0332   1.0395   1.0498   1.0604   1.0759
     1.0815   1.0833   1.0761   1.0696   1.0325   0.9938   0.9662   0.8829
     0.7233   0.6009   0.4975   0.4306   0.3322   0.2189   0.1767   0.1414
     0.0869   0.0721   0.0487   0.0277   0.0186   0.0135   0.0068   0.0058
     0.0025   0.0018   0.0009   0.0005   0.0004   0.0002   0.0001   0.0000
     0.0000   0.0000   0.0000   0.0000   0.0000   0.0000

          k = 0.3333 0.0000-0.3333 ( 40312 PWs)   bands (ev):

    -5.9527  -5.7276  -5.4355  -5.1797  -4.9601  -4.8380  -4.6662  -4.5390
    -4.4048  -4.2623  -4.2457  -4.0688  -3.9952  -3.8034  -3.7262  -3.5686
    -3.4171  -3.3152  -3.1302  -3.0133  -2.9081  -2.8657  -2.8090  -2.7265
    -2.6205  -2.5186  -2.3529  -2.2289  -2.1374  -1.9974  -1.8929  -1.8379
    -1.6659  -1.5742  -1.4787  -1.3728  -1.2358  -1.1637  -1.0234  -0.8903
    -0.7708  -0.6697  -0.6358  -0.4349  -0.3571  -0.2152  -0.1490   0.0142
     0.1094   0.1848   0.3898   0.4829   0.6801   0.7047   0.7877   0.8654
     0.9873   1.0630   1.1466   1.2713   1.3666   1.4564   1.5552   1.6190
     1.7280   1.7851   1.8734   1.9618   2.0236   2.1213   2.1623   2.2299
     2.3284   2.3581   2.4219   2.4945   2.6290   2.6875   2.7411   2.8059
     2.8832   2.9345   3.0085   3.0219   3.0879   3.2154   3.2767   3.3206
     3.3814   3.4330   3.5001   3.5612   3.6651   3.6961   3.7489   3.8404
     3.8624   3.9155   3.9349   4.0419   4.0801   4.1407   4.2062   4.2362
     4.2904   4.3887   4.4226   4.5189   4.5424   4.6255   4.6576   4.7301
     4.7892   4.8412   4.9017   4.9898   5.0490   5.1155   5.2537   5.2930
     5.3525   5.3834   5.4837   5.5926   5.7750   5.8244   5.9062   6.0328
     6.1966   6.2438   6.3222   6.3599   6.4517   6.5223   6.6233   6.6835
     6.8276   6.8721   6.9942   7.0312   7.1171   7.1955   7.3219   7.3978
     7.4563   7.5102   7.6105   7.6727   7.7548   7.8454   7.8631   7.9247
     8.0258   8.0772   8.1449   8.2157   8.2759   8.3354

     occupation numbers 
     1.0000   1.0000   1.0000   1.0000   1.0000   1.0000   1.0000   1.0000
     1.0000   1.0000   1.0000   1.0000   1.0000   1.0000   1.0000   1.0000
     1.0000   1.0000   1.0000   1.0000   1.0000   1.0000   1.0000   1.0000
     1.0000   1.0000   1.0000   1.0000   1.0000   1.0000   1.0000   1.0000
     1.0000   1.0000   1.0000   1.0000   1.0000   1.0000   1.0000   1.0000
     1.0000   1.0000   1.0000   1.0000   1.0000   1.0000   1.0000   1.0000
     1.0000   1.0000   1.0000   1.0000   1.0000   1.0000   1.0000   1.0000
     1.0000   1.0000   1.0000   1.0000   1.0000   1.0000   1.0000   1.0000
     1.0000   1.0000   1.0000   1.0000   1.0000   1.0000   1.0000   1.0000
     1.0000   1.0000   1.0000   1.0000   1.0000   1.0000   1.0000   1.0000
     1.0000   1.0000   1.0000   1.0000   1.0000   1.0000   1.0000   1.0000
     1.0000   1.0000   1.0000   1.0000   1.0000   1.0000   1.0000   1.0000
     1.0000   1.0001   1.0001   1.0001   1.0002   1.0003   1.0005   1.0006
     1.0009   1.0018   1.0022   1.0040   1.0045   1.0071   1.0084   1.0121
     1.0159   1.0199   1.0254   1.0350   1.0425   1.0514   1.0700   1.0745
     1.0799   1.0819   1.0822   1.0682   0.9992   0.9694   0.9095   0.7945
     0.6198   0.5676   0.4819   0.4419   0.3502   0.2867   0.2082   0.1689
     0.0965   0.0799   0.0455   0.0379   0.0243   0.0158   0.0075   0.0046
     0.0031   0.0021   0.0010   0.0007   0.0003   0.0002   0.0001   0.0001
     0.0000   0.0000   0.0000   0.0000   0.0000   0.0000

          k =-0.3333 0.0000-0.3333 ( 40312 PWs)   bands (ev):

    -5.9607  -5.6853  -5.5016  -5.1402  -4.9706  -4.8535  -4.6214  -4.4725
    -4.4617  -4.3448  -4.2173  -4.0596  -3.9526  -3.8490  -3.7659  -3.5329
    -3.4114  -3.2380  -3.1258  -3.0704  -2.9815  -2.8425  -2.7988  -2.7504
    -2.5822  -2.4878  -2.3688  -2.2170  -2.1537  -2.0615  -1.8705  -1.7756
    -1.6294  -1.5483  -1.4629  -1.3798  -1.2928  -1.2059  -1.0776  -0.9071
    -0.6775  -0.6543  -0.5641  -0.4939  -0.3953  -0.2908  -0.1346   0.0361
     0.1050   0.2453   0.3681   0.4911   0.6384   0.6705   0.7420   0.9268
     1.0247   1.0834   1.1533   1.2738   1.3977   1.4367   1.5428   1.6866
     1.7245   1.7840   1.8272   1.9267   2.0093   2.0708   2.1757   2.2677
     2.3365   2.4576   2.4832   2.5612   2.5904   2.6450   2.7379   2.7961
     2.8293   2.8673   3.0020   3.0529   3.1311   3.2100   3.2574   3.3280
     3.3711   3.3944   3.4659   3.5434   3.5916   3.6731   3.7420   3.8093
     3.8575   3.8848   3.9674   4.0829   4.1286   4.1910   4.1921   4.2555
     4.2786   4.3233   4.3787   4.5203   4.5538   4.6473   4.7240   4.7706
     4.8204   4.8778   4.9341   4.9803   5.0286   5.1214   5.1643   5.2465
     5.3841   5.4295   5.5053   5.6001   5.7595   5.8807   5.9935   6.0461
     6.1484   6.2290   6.3150   6.4019   6.4623   6.5152   6.6182   6.7099
     6.8132   6.8512   6.9844   7.0248   7.0886   7.1869   7.3064   7.3532
     7.4134   7.5061   7.6179   7.6856   7.7485   7.7980   7.8316   7.9025
     8.0134   8.0697   8.1474   8.2033   8.2713   8.3794

     occupation numbers 
     1.0000   1.0000   1.0000   1.0000   1.0000   1.0000   1.0000   1.0000
     1.0000   1.0000   1.0000   1.0000   1.0000   1.0000   1.0000   1.0000
     1.0000   1.0000   1.0000   1.0000   1.0000   1.0000   1.0000   1.0000
     1.0000   1.0000   1.0000   1.0000   1.0000   1.0000   1.0000   1.0000
     1.0000   1.0000   1.0000   1.0000   1.0000   1.0000   1.0000   1.0000
     1.0000   1.0000   1.0000   1.0000   1.0000   1.0000   1.0000   1.0000
     1.0000   1.0000   1.0000   1.0000   1.0000   1.0000   1.0000   1.0000
     1.0000   1.0000   1.0000   1.0000   1.0000   1.0000   1.0000   1.0000
     1.0000   1.0000   1.0000   1.0000   1.0000   1.0000   1.0000   1.0000
     1.0000   1.0000   1.0000   1.0000   1.0000   1.0000   1.0000   1.0000
     1.0000   1.0000   1.0000   1.0000   1.0000   1.0000   1.0000   1.0000
     1.0000   1.0000   1.0000   1.0000   1.0000   1.0000   1.0000   1.0000
     1.0000   1.0000   1.0001   1.0002   1.0003   1.0005   1.0005   1.0007
     1.0009   1.0012   1.0017   1.0040   1.0048   1.0080   1.0117   1.0146
     1.0182   1.0231   1.0287   1.0339   1.0398   1.0522   1.0582   1.0691
     1.0819   1.0833   1.0807   1.0666   1.0075   0.9295   0.8327   0.7811
     0.6729   0.5839   0.4896   0.3989   0.3403   0.2928   0.2118   0.1534
     0.1024   0.0874   0.0478   0.0392   0.0283   0.0166   0.0082   0.0061
     0.0041   0.0022   0.0010   0.0006   0.0004   0.0002   0.0002   0.0001
     0.0000   0.0000   0.0000   0.0000   0.0000   0.0000

          k = 0.3333-0.3333 0.0000 ( 40312 PWs)   bands (ev):

    -5.9597  -5.6427  -5.5677  -5.1459  -4.9807  -4.7690  -4.6153  -4.5201
    -4.4335  -4.3754  -4.1696  -4.1287  -3.9580  -3.8711  -3.7580  -3.5142
    -3.3249  -3.2139  -3.1224  -3.0744  -2.9758  -2.9266  -2.8678  -2.6607
    -2.5397  -2.5034  -2.3706  -2.3078  -2.1609  -2.0857  -1.9230  -1.8312
    -1.7250  -1.5570  -1.4820  -1.3153  -1.2348  -1.0417  -0.9707  -0.8589
    -0.7636  -0.6940  -0.5423  -0.3364  -0.3187  -0.1739  -0.1301  -0.0325
     0.0929   0.1903   0.3559   0.4164   0.4964   0.7018   0.7712   0.8575
     0.8898   1.0589   1.1227   1.2454   1.3001   1.4612   1.5448   1.6333
     1.7261   1.7958   1.8365   1.9703   2.0337   2.0988   2.1786   2.2213
     2.3430   2.3932   2.4738   2.5980   2.6079   2.6395   2.7622   2.8037
     2.8839   2.9847   3.0119   3.1017   3.1695   3.2336   3.2732   3.3449
     3.4123   3.4480   3.5147   3.5804   3.6124   3.6643   3.7129   3.7923
     3.8629   3.9159   3.9895   4.0629   4.1012   4.1706   4.2117   4.2667
     4.3523   4.3795   4.4275   4.4659   4.4986   4.6383   4.6716   4.7128
     4.8007   4.8367   4.9073   4.9560   5.0378   5.1615   5.1726   5.2672
     5.3464   5.4214   5.4370   5.5833   5.6083   5.8194   5.8812   6.0039
     6.1282   6.1609   6.2623   6.3904   6.4674   6.5526   6.6612   6.7222
     6.8194   6.9330   7.0138   7.1234   7.1554   7.2246   7.3546   7.3820
     7.4955   7.5357   7.6054   7.6655   7.7316   7.8055   7.9263   7.9542
     8.0156   8.0457   8.1857   8.2075   8.2788   8.3794

     occupation numbers 
     1.0000   1.0000   1.0000   1.0000   1.0000   1.0000   1.0000   1.0000
     1.0000   1.0000   1.0000   1.0000   1.0000   1.0000   1.0000   1.0000
     1.0000   1.0000   1.0000   1.0000   1.0000   1.0000   1.0000   1.0000
     1.0000   1.0000   1.0000   1.0000   1.0000   1.0000   1.0000   1.0000
     1.0000   1.0000   1.0000   1.0000   1.0000   1.0000   1.0000   1.0000
     1.0000   1.0000   1.0000   1.0000   1.0000   1.0000   1.0000   1.0000
     1.0000   1.0000   1.0000   1.0000   1.0000   1.0000   1.0000   1.0000
     1.0000   1.0000   1.0000   1.0000   1.0000   1.0000   1.0000   1.0000
     1.0000   1.0000   1.0000   1.0000   1.0000   1.0000   1.0000   1.0000
     1.0000   1.0000   1.0000   1.0000   1.0000   1.0000   1.0000   1.0000
     1.0000   1.0000   1.0000   1.0000   1.0000   1.0000   1.0000   1.0000
     1.0000   1.0000   1.0000   1.0000   1.0000   1.0000   1.0000   1.0000
     1.0000   1.0001   1.0001   1.0002   1.0002   1.0004   1.0005   1.0008
     1.0014   1.0017   1.0023   1.0029   1.0035   1.0076   1.0091   1.0111
     1.0167   1.0195   1.0260   1.0311   1.0410   1.0578   1.0593   1.0716
     1.0795   1.0832   1.0833   1.0701   1.0647   0.9726   0.9291   0.8228
     0.6949   0.6592   0.5471   0.4104   0.3355   0.2616   0.1828   0.1465
     0.0999   0.0608   0.0414   0.0235   0.0198   0.0134   0.0061   0.0051
     0.0024   0.0018   0.0011   0.0007   0.0004   0.0002   0.0001   0.0001
     0.0000   0.0000   0.0000   0.0000   0.0000   0.0000

          k =-0.3333-0.3333 0.0000 ( 40312 PWs)   bands (ev):

    -5.9404  -5.7481  -5.4344  -5.1874  -4.9739  -4.7709  -4.6752  -4.5608
    -4.3677  -4.3156  -4.1812  -4.1639  -3.9461  -3.8843  -3.7084  -3.5525
    -3.3074  -3.2126  -3.1362  -3.0621  -2.9652  -2.8961  -2.8497  -2.7113
    -2.6592  -2.4807  -2.3271  -2.2868  -2.2085  -2.1283  -1.8836  -1.8233
    -1.6388  -1.5565  -1.4431  -1.3223  -1.1736  -1.0976  -1.0069  -0.8725
    -0.7516  -0.6709  -0.5082  -0.4701  -0.3360  -0.2786  -0.1614   0.0577
     0.1517   0.2019   0.4095   0.4846   0.5780   0.6329   0.6724   0.7820
     0.8851   1.0570   1.1553   1.2396   1.3901   1.4788   1.5787   1.5975
     1.6958   1.7801   1.8827   1.9586   2.0125   2.0866   2.1887   2.2320
     2.2885   2.3988   2.4459   2.5675   2.6342   2.7084   2.7518   2.7922
     2.9582   2.9689   3.0192   3.1226   3.1653   3.2445   3.2575   3.3026
     3.4119   3.4540   3.5134   3.5491   3.6193   3.6906   3.7028   3.8000
     3.8602   3.8978   3.9181   4.0145   4.1043   4.1808   4.2238   4.2722
     4.3555   4.4033   4.4171   4.4878   4.5763   4.6129   4.6500   4.7228
     4.7747   4.8309   4.9400   4.9710   5.0145   5.0948   5.1990   5.2184
     5.3809   5.4123   5.4843   5.5606   5.6796   5.7906   5.9448   5.9862
     6.0653   6.1528   6.2598   6.4012   6.4624   6.6272   6.6761   6.7242
     6.8116   6.8909   7.0145   7.0584   7.2334   7.3332   7.3667   7.3971
     7.4410   7.4707   7.5826   7.6093   7.7516   7.8018   7.8739   7.9765
     8.0171   8.0746   8.1593   8.2740   8.3183   8.3248

     occupation numbers 
     1.0000   1.0000   1.0000   1.0000   1.0000   1.0000   1.0000   1.0000
     1.0000   1.0000   1.0000   1.0000   1.0000   1.0000   1.0000   1.0000
     1.0000   1.0000   1.0000   1.0000   1.0000   1.0000   1.0000   1.0000
     1.0000   1.0000   1.0000   1.0000   1.0000   1.0000   1.0000   1.0000
     1.0000   1.0000   1.0000   1.0000   1.0000   1.0000   1.0000   1.0000
     1.0000   1.0000   1.0000   1.0000   1.0000   1.0000   1.0000   1.0000
     1.0000   1.0000   1.0000   1.0000   1.0000   1.0000   1.0000   1.0000
     1.0000   1.0000   1.0000   1.0000   1.0000   1.0000   1.0000   1.0000
     1.0000   1.0000   1.0000   1.0000   1.0000   1.0000   1.0000   1.0000
     1.0000   1.0000   1.0000   1.0000   1.0000   1.0000   1.0000   1.0000
     1.0000   1.0000   1.0000   1.0000   1.0000   1.0000   1.0000   1.0000
     1.0000   1.0000   1.0000   1.0000   1.0000   1.0000   1.0000   1.0000
     1.0000   1.0000   1.0001   1.0001   1.0002   1.0004   1.0006   1.0008
     1.0014   1.0020   1.0021   1.0033   1.0055   1.0067   1.0081   1.0117
     1.0149   1.0190   1.0294   1.0328   1.0381   1.0486   1.0629   1.0655
     1.0817   1.0830   1.0821   1.0742   1.0431   0.9903   0.8770   0.8396
     0.7616   0.6681   0.5499   0.3996   0.3402   0.2055   0.1735   0.1454
     0.1031   0.0735   0.0412   0.0331   0.0127   0.0069   0.0056   0.0046
     0.0035   0.0028   0.0013   0.0011   0.0004   0.0002   0.0001   0.0001
     0.0000   0.0000   0.0000   0.0000   0.0000   0.0000

          k =-0.3333-0.3333 0.3333 ( 40314 PWs)   bands (ev):

    -5.8468  -5.6914  -5.4655  -5.2532  -5.1656  -5.0300  -4.7621  -4.6618
    -4.2790  -4.1194  -4.0128  -3.8459  -3.7607  -3.7224  -3.5900  -3.4983
    -3.4581  -3.3337  -3.1564  -3.0825  -3.0118  -2.9452  -2.8535  -2.7621
    -2.6023  -2.5634  -2.4138  -2.3536  -2.2469  -2.1079  -1.9705  -1.9315
    -1.7785  -1.5556  -1.3969  -1.3506  -1.2301  -1.1234  -1.0271  -0.9260
    -0.8146  -0.6890  -0.5403  -0.5093  -0.2482  -0.1584  -0.0933   0.0036
     0.1282   0.1600   0.4159   0.4979   0.6096   0.7324   0.8353   0.9397
     1.0231   1.0685   1.1861   1.2496   1.2967   1.4255   1.5438   1.6397
     1.7730   1.8177   1.8731   2.0152   2.1263   2.1746   2.2555   2.3270
     2.3933   2.4215   2.5370   2.6051   2.6830   2.7298   2.8529   2.9060
     2.9656   3.0184   3.0368   3.0743   3.1463   3.1722   3.2554   3.2749
     3.2882   3.4310   3.4845   3.5084   3.5737   3.6116   3.7172   3.7750
     3.7960   3.8789   3.9070   3.9542   4.0198   4.0332   4.1268   4.1472
     4.2215   4.2840   4.3502   4.4039   4.4805   4.4904   4.6029   4.7256
     4.7607   4.8288   4.8928   4.9566   4.9972   5.1106   5.1457   5.2081
     5.2601   5.3419   5.4141   5.5782   5.7064   5.8145   5.8711   5.9504
     6.1378   6.1847   6.2832   6.3759   6.4575   6.5389   6.6506   6.6730
     6.8678   6.9315   7.0551   7.0634   7.1749   7.2603   7.3291   7.4213
     7.4640   7.5501   7.6237   7.7170   7.7592   7.8960   7.9234   8.0417
     8.0788   8.1552   8.2099   8.2578   8.3326   8.3873

     occupation numbers 
     1.0000   1.0000   1.0000   1.0000   1.0000   1.0000   1.0000   1.0000
     1.0000   1.0000   1.0000   1.0000   1.0000   1.0000   1.0000   1.0000
     1.0000   1.0000   1.0000   1.0000   1.0000   1.0000   1.0000   1.0000
     1.0000   1.0000   1.0000   1.0000   1.0000   1.0000   1.0000   1.0000
     1.0000   1.0000   1.0000   1.0000   1.0000   1.0000   1.0000   1.0000
     1.0000   1.0000   1.0000   1.0000   1.0000   1.0000   1.0000   1.0000
     1.0000   1.0000   1.0000   1.0000   1.0000   1.0000   1.0000   1.0000
     1.0000   1.0000   1.0000   1.0000   1.0000   1.0000   1.0000   1.0000
     1.0000   1.0000   1.0000   1.0000   1.0000   1.0000   1.0000   1.0000
     1.0000   1.0000   1.0000   1.0000   1.0000   1.0000   1.0000   1.0000
     1.0000   1.0000   1.0000   1.0000   1.0000   1.0000   1.0000   1.0000
     1.0000   1.0000   1.0000   1.0000   1.0000   1.0000   1.0000   1.0000
     1.0000   1.0000   1.0000   1.0001   1.0001   1.0001   1.0003   1.0003
     1.0006   1.0009   1.0014   1.0020   1.0032   1.0034   1.0063   1.0118
     1.0139   1.0189   1.0245   1.0312   1.0359   1.0508   1.0556   1.0641
     1.0707   1.0791   1.0830   1.0711   1.0326   0.9757   0.9367   0.8722
     0.6845   0.6330   0.5242   0.4253   0.3447   0.2728   0.1897   0.1754
     0.0814   0.0612   0.0336   0.0322   0.0177   0.0108   0.0071   0.0039
     0.0030   0.0016   0.0009   0.0005   0.0003   0.0001   0.0001   0.0000
     0.0000   0.0000   0.0000   0.0000   0.0000   0.0000

          k =-0.3333 0.3333-0.3333 ( 40314 PWs)   bands (ev):

    -5.8712  -5.5959  -5.5159  -5.3545  -5.0738  -4.9799  -4.9017  -4.5854
    -4.2538  -4.0997  -3.9696  -3.8641  -3.7690  -3.7001  -3.6337  -3.5581
    -3.4574  -3.3946  -3.2371  -3.0977  -2.9391  -2.8751  -2.8234  -2.7359
    -2.6450  -2.4855  -2.4374  -2.2871  -2.2354  -2.1607  -1.9992  -1.9104
    -1.7167  -1.6252  -1.4768  -1.4093  -1.2205  -1.0870  -1.0205  -0.8814
    -0.8060  -0.7207  -0.6216  -0.4804  -0.2703  -0.1167  -0.0233   0.0648
     0.1382   0.2641   0.3486   0.5076   0.5929   0.6741   0.7507   0.7849
     0.9203   1.0992   1.1581   1.2812   1.4132   1.5242   1.6405   1.7109
     1.8074   1.8736   1.9178   2.0307   2.0914   2.1605   2.2072   2.3253
     2.3504   2.4242   2.4827   2.5907   2.6029   2.7161   2.7961   2.8449
     2.8963   2.9888   3.0492   3.1178   3.1745   3.2077   3.2895   3.3015
     3.3817   3.4019   3.4963   3.5133   3.5757   3.6106   3.6410   3.7303
     3.7813   3.8282   3.8624   3.9547   3.9910   4.0621   4.1380   4.1906
     4.2636   4.3056   4.3679   4.4172   4.4915   4.5198   4.6087   4.6941
     4.7684   4.8190   4.9008   4.9206   5.0243   5.0784   5.1869   5.2402
     5.3651   5.4109   5.4544   5.5364   5.7033   5.8257   5.9192   6.0009
     6.0630   6.1193   6.3055   6.3395   6.3817   6.5091   6.6072   6.7627
     6.8189   6.9486   7.0464   7.0879   7.1310   7.2235   7.2750   7.3843
     7.4622   7.5632   7.6241   7.6892   7.8055   7.8429   7.8939   8.0403
     8.0962   8.1671   8.2037   8.2649   8.2966   8.3947

     occupation numbers 
     1.0000   1.0000   1.0000   1.0000   1.0000   1.0000   1.0000   1.0000
     1.0000   1.0000   1.0000   1.0000   1.0000   1.0000   1.0000   1.0000
     1.0000   1.0000   1.0000   1.0000   1.0000   1.0000   1.0000   1.0000
     1.0000   1.0000   1.0000   1.0000   1.0000   1.0000   1.0000   1.0000
     1.0000   1.0000   1.0000   1.0000   1.0000   1.0000   1.0000   1.0000
     1.0000   1.0000   1.0000   1.0000   1.0000   1.0000   1.0000   1.0000
     1.0000   1.0000   1.0000   1.0000   1.0000   1.0000   1.0000   1.0000
     1.0000   1.0000   1.0000   1.0000   1.0000   1.0000   1.0000   1.0000
     1.0000   1.0000   1.0000   1.0000   1.0000   1.0000   1.0000   1.0000
     1.0000   1.0000   1.0000   1.0000   1.0000   1.0000   1.0000   1.0000
     1.0000   1.0000   1.0000   1.0000   1.0000   1.0000   1.0000   1.0000
     1.0000   1.0000   1.0000   1.0000   1.0000   1.0000   1.0000   1.0000
     1.0000   1.0000   1.0000   1.0001   1.0001   1.0002   1.0003   1.0005
     1.0008   1.0010   1.0016   1.0022   1.0034   1.0040   1.0065   1.0101
     1.0144   1.0181   1.0253   1.0273   1.0393   1.0464   1.0613   1.0683
     1.0808   1.0829   1.0832   1.0776   1.0339   0.9685   0.8989   0.8257
     0.7639   0.7045   0.4999   0.4634   0.4194   0.2980   0.2197   0.1255
     0.1001   0.0566   0.0352   0.0284   0.0226   0.0134   0.0099   0.0050
     0.0030   0.0015   0.0009   0.0006   0.0002   0.0002   0.0001   0.0000
     0.0000   0.0000   0.0000   0.0000   0.0000   0.0000

          k = 0.3333-0.3333-0.3333 ( 40314 PWs)   bands (ev):

    -5.8619  -5.6371  -5.5116  -5.2773  -5.1535  -4.9777  -4.8458  -4.5986
    -4.2889  -4.1085  -3.9486  -3.8794  -3.8147  -3.7376  -3.5907  -3.5559
    -3.4323  -3.2754  -3.1816  -3.0857  -3.0222  -2.8955  -2.8491  -2.7449
    -2.6331  -2.5762  -2.3901  -2.3216  -2.2179  -2.1172  -1.9964  -1.8734
    -1.7977  -1.7012  -1.4886  -1.3658  -1.2059  -1.1043  -0.9280  -0.8686
    -0.7657  -0.6777  -0.5772  -0.4601  -0.3402  -0.2442  -0.0088   0.0704
     0.1711   0.2381   0.3523   0.4724   0.5248   0.6481   0.7675   0.8454
     1.0009   1.0790   1.2149   1.2938   1.3931   1.4578   1.5854   1.6697
     1.7480   1.9063   1.9821   2.0198   2.1188   2.1521   2.2183   2.3099
     2.3951   2.4442   2.5320   2.5853   2.6694   2.7215   2.7545   2.8487
     2.9178   2.9493   3.0190   3.0784   3.1652   3.1980   3.2806   3.3276
     3.3383   3.4200   3.4676   3.5062   3.5807   3.6653   3.6823   3.7376
     3.7683   3.8476   3.8854   3.9365   3.9994   4.0545   4.1046   4.2115
     4.2535   4.3071   4.3430   4.4403   4.4556   4.5278   4.5836   4.7295
     4.7494   4.7792   4.8824   4.9651   5.0421   5.0998   5.1714   5.2424
     5.3222   5.3935   5.4655   5.5712   5.6586   5.8491   5.8867   6.0248
     6.1093   6.1745   6.2890   6.3144   6.3960   6.4618   6.5866   6.6800
     6.7719   6.9907   7.0556   7.1315   7.1961   7.2763   7.3176   7.4733
     7.4857   7.6061   7.6233   7.7027   7.7433   7.8054   7.9043   7.9557
     8.0271   8.0602   8.1716   8.2463   8.3333   8.3848

     occupation numbers 
     1.0000   1.0000   1.0000   1.0000   1.0000   1.0000   1.0000   1.0000
     1.0000   1.0000   1.0000   1.0000   1.0000   1.0000   1.0000   1.0000
     1.0000   1.0000   1.0000   1.0000   1.0000   1.0000   1.0000   1.0000
     1.0000   1.0000   1.0000   1.0000   1.0000   1.0000   1.0000   1.0000
     1.0000   1.0000   1.0000   1.0000   1.0000   1.0000   1.0000   1.0000
     1.0000   1.0000   1.0000   1.0000   1.0000   1.0000   1.0000   1.0000
     1.0000   1.0000   1.0000   1.0000   1.0000   1.0000   1.0000   1.0000
     1.0000   1.0000   1.0000   1.0000   1.0000   1.0000   1.0000   1.0000
     1.0000   1.0000   1.0000   1.0000   1.0000   1.0000   1.0000   1.0000
     1.0000   1.0000   1.0000   1.0000   1.0000   1.0000   1.0000   1.0000
     1.0000   1.0000   1.0000   1.0000   1.0000   1.0000   1.0000   1.0000
     1.0000   1.0000   1.0000   1.0000   1.0000   1.0000   1.0000   1.0000
     1.0000   1.0000   1.0000   1.0001   1.0001   1.0002   1.0002   1.0005
     1.0007   1.0011   1.0013   1.0025   1.0027   1.0042   1.0057   1.0120
     1.0132   1.0152   1.0235   1.0322   1.0416   1.0493   1.0591   1.0686
     1.0774   1.0823   1.0829   1.0724   1.0505   0.9526   0.9249   0.8025
     0.7152   0.6443   0.5178   0.4903   0.4048   0.3407   0.2350   0.1711
     0.1210   0.0463   0.0335   0.0225   0.0157   0.0098   0.0077   0.0028
     0.0025   0.0011   0.0009   0.0005   0.0004   0.0002   0.0001   0.0001
     0.0000   0.0000   0.0000   0.0000   0.0000   0.0000

     the Fermi energy is     6.4001 ev

!    total energy              =    -511.26843894 Ry
     Harris-Foulkes estimate   =    -511.26843894 Ry
     estimated scf accuracy    <          7.1E-09 Ry

     The total energy is the sum of the following terms:

     one-electron contribution =     143.56552102 Ry
     hartree contribution      =      42.77904560 Ry
     xc contribution           =    -158.65204616 Ry
     ewald contribution        =    -538.97757933 Ry
     smearing contrib. (-TS)   =       0.01661992 Ry

     convergence has been achieved in  19 iterations

     Forces acting on atoms (cartesian axes, Ry/au):

     atom    1 type  1   force =     0.00631522    0.00254303    0.00366737
     atom    2 type  1   force =     0.01320007   -0.00327357   -0.00040411
     atom    3 type  1   force =     0.00590011   -0.01402801    0.00340679
     atom    4 type  1   force =     0.00323820   -0.00593241    0.00283007
     atom    5 type  1   force =    -0.03116641    0.00357602    0.01040008
     atom    6 type  1   force =     0.00022624   -0.01124545    0.01490169
     atom    7 type  1   force =    -0.01463489   -0.00487968    0.00268405
     atom    8 type  1   force =     0.00453021    0.00675132    0.00346164
     atom    9 type  1   force =    -0.00817277    0.01883059    0.02329190
     atom   10 type  1   force =    -0.00292123    0.00098789    0.00030722
     atom   11 type  1   force =    -0.00022731   -0.00416971   -0.00082421
     atom   12 type  1   force =     0.00477884   -0.00238274    0.00023534
     atom   13 type  1   force =     0.00521888   -0.00799984   -0.00506269
     atom   14 type  1   force =    -0.00019620   -0.00670680   -0.00373619
     atom   15 type  1   force =     0.00184404   -0.00802330   -0.00077898
     atom   16 type  1   force =    -0.00701409    0.00754338   -0.00947685
     atom   17 type  1   force =     0.00751876    0.00517745    0.00311035
     atom   18 type  1   force =     0.00242553   -0.00312738    0.00441723
     atom   19 type  1   force =     0.00941316   -0.00491914   -0.00761533
     atom   20 type  1   force =    -0.00286019    0.00193381   -0.00273207
     atom   21 type  1   force =    -0.00471964   -0.00138253   -0.00092631
     atom   22 type  1   force =    -0.00865032   -0.00655823   -0.00445129
     atom   23 type  1   force =     0.01746733   -0.01101880    0.00722317
     atom   24 type  1   force =     0.00543876    0.00271839    0.00742143
     atom   25 type  1   force =    -0.00176050    0.00362461    0.00964785
     atom   26 type  1   force =     0.00506955   -0.00199072    0.01949546
     atom   27 type  1   force =    -0.00704388    0.02265198   -0.01053429
     atom   28 type  1   force =    -0.00512899   -0.00672760   -0.00863964
     atom   29 type  1   force =    -0.00950140   -0.00665099   -0.00407864
     atom   30 type  1   force =    -0.00558269   -0.00864958   -0.00853297
     atom   31 type  1   force =     0.00206839   -0.00211875   -0.00797645
     atom   32 type  1   force =     0.00073366    0.00370661   -0.00440331
     atom   33 type  1   force =     0.00448162    0.00101982   -0.00011786
     atom   34 type  1   force =     0.00789143    0.00588708   -0.00381930
     atom   35 type  1   force =     0.01773061   -0.00437479   -0.00621316
     atom   36 type  1   force =    -0.01026237   -0.00919387   -0.01484461
     atom   37 type  1   force =    -0.00469222   -0.00730424   -0.01050692
     atom   38 type  1   force =     0.00962683   -0.00756030    0.01623707
     atom   39 type  1   force =     0.00360664   -0.00027097   -0.00433490
     atom   40 type  1   force =    -0.01006332    0.00061156   -0.00732671
     atom   41 type  1   force =    -0.00297320   -0.00407965   -0.00575223
     atom   42 type  1   force =    -0.00162663   -0.00354395   -0.00180215
     atom   43 type  1   force =    -0.00432996    0.01082889   -0.00677262
     atom   44 type  1   force =    -0.00476412   -0.00053683   -0.00019897
     atom   45 type  1   force =     0.00042005    0.00899445    0.00190028
     atom   46 type  1   force =    -0.00339169    0.02401667    0.00411073
     atom   47 type  1   force =    -0.00224590    0.00742221   -0.00529137
     atom   48 type  1   force =     0.00741982   -0.00789284   -0.00342628
     atom   49 type  1   force =     0.00693741   -0.00572403   -0.00885728
     atom   50 type  1   force =    -0.00722814   -0.00401881   -0.00274755
     atom   51 type  1   force =    -0.01124908    0.00132747    0.01557288
     atom   52 type  1   force =    -0.00342027    0.03071291    0.01225887
     atom   53 type  1   force =     0.00712097   -0.00162968   -0.01336270
     atom   54 type  1   force =    -0.00472445    0.00032406   -0.00306544
     atom   55 type  1   force =     0.01704936    0.01101891   -0.00185787
     atom   56 type  1   force =    -0.00429206   -0.00601835    0.00089032
     atom   57 type  1   force =    -0.00531388    0.01244347   -0.00758764
     atom   58 type  1   force =    -0.00004594    0.01222022    0.00101755
     atom   59 type  1   force =     0.00417878   -0.01199334    0.00419252
     atom   60 type  1   force =     0.00408019    0.00933303    0.00537195
     atom   61 type  1   force =    -0.01399065    0.00994786    0.00293905
     atom   62 type  1   force =    -0.00334579   -0.00453137   -0.00664079
     atom   63 type  1   force =    -0.00049625    0.00338624   -0.00141055
     atom   64 type  1   force =     0.00584735   -0.00585561    0.00894457
     atom   65 type  2   force =    -0.00609056    0.00628365   -0.00494215
     atom   66 type  2   force =    -0.01029197   -0.02317827    0.01079597
     atom   67 type  2   force =    -0.00592556    0.00533444   -0.00234625
     atom   68 type  2   force =     0.00474371    0.00033301   -0.00420408
     atom   69 type  2   force =     0.02512353    0.00901944   -0.00543786
     atom   70 type  2   force =    -0.01067420   -0.00525506    0.00447649
     atom   71 type  2   force =     0.00113844   -0.01837751    0.00809232
     atom   72 type  2   force =     0.01823502    0.00261421   -0.00026167
     The non-local contrib.  to forces
     atom    1 type  1   force =     0.03602697    0.02171056   -0.01337224
     atom    2 type  1   force =    -0.00509701   -0.06762906    0.02649260
     atom    3 type  1   force =     0.04974747   -0.02345161   -0.02394522
     atom    4 type  1   force =     0.05233026   -0.02538014    0.01037508
     atom    5 type  1   force =     0.03539105    0.03464866   -0.05577509
     atom    6 type  1   force =     0.03625520   -0.02107037    0.00916402
     atom    7 type  1   force =    -0.07663039    0.01892351    0.05742522
     atom    8 type  1   force =    -0.01674920   -0.05708540    0.04922535
     atom    9 type  1   force =     0.01448155    0.02701195   -0.01466184
     atom   10 type  1   force =    -0.06735244    0.04874664   -0.02689363
     atom   11 type  1   force =     0.01621435   -0.04957805   -0.02267352
     atom   12 type  1   force =     0.00949036    0.06751765    0.04199668
     atom   13 type  1   force =     0.11929271    0.01852679   -0.04278641
     atom   14 type  1   force =    -0.01423027    0.07307220    0.07253457
     atom   15 type  1   force =    -0.12574725   -0.02243742   -0.00080247
     atom   16 type  1   force =    -0.17813705    0.02303272   -0.04089976
     atom   17 type  1   force =     0.05379573    0.01749877   -0.00042960
     atom   18 type  1   force =    -0.00810188   -0.04968315   -0.03553020
     atom   19 type  1   force =    -0.06476091   -0.05243144    0.01854022
     atom   20 type  1   force =     0.02429080    0.07314858    0.05118473
     atom   21 type  1   force =    -0.08250731   -0.05932402   -0.08291482
     atom   22 type  1   force =     0.07592451    0.04647798    0.00657072
     atom   23 type  1   force =     0.05335911   -0.12573311    0.02166585
     atom   24 type  1   force =     0.09168113    0.01672827   -0.06546666
     atom   25 type  1   force =    -0.03015748   -0.00104852   -0.01574344
     atom   26 type  1   force =     0.07119445   -0.02433907   -0.01470009
     atom   27 type  1   force =     0.11384177   -0.00467445   -0.00056788
     atom   28 type  1   force =     0.06105204   -0.02017307   -0.01274445
     atom   29 type  1   force =    -0.00385009    0.04496842    0.05740771
     atom   30 type  1   force =     0.05988996    0.01772488    0.03669189
     atom   31 type  1   force =    -0.06133600   -0.07522714   -0.01210349
     atom   32 type  1   force =    -0.03771124    0.03327858    0.05682446
     atom   33 type  1   force =     0.06426939   -0.07068789   -0.01259935
     atom   34 type  1   force =    -0.00931645   -0.01478223    0.00676733
     atom   35 type  1   force =     0.01542013   -0.03602605   -0.02301310
     atom   36 type  1   force =     0.07239213    0.03000129   -0.03078743
     atom   37 type  1   force =    -0.07700486    0.03661720   -0.00881969
     atom   38 type  1   force =     0.06006389   -0.00524225   -0.00823301
     atom   39 type  1   force =     0.09364178    0.00930143    0.07863203
     atom   40 type  1   force =    -0.03296326    0.01219869   -0.06954601
     atom   41 type  1   force =     0.00634231   -0.06638546   -0.06294885
     atom   42 type  1   force =     0.10406740   -0.02112569    0.01902172
     atom   43 type  1   force =    -0.05136182   -0.05390893    0.03576074
     atom   44 type  1   force =     0.04673663   -0.06562518    0.07306035
     atom   45 type  1   force =     0.02124102   -0.01933662    0.00802224
     atom   46 type  1   force =    -0.01923380    0.02302365   -0.02430244
     atom   47 type  1   force =    -0.00708266    0.04331063   -0.10223858
     atom   48 type  1   force =    -0.02079106   -0.05767568    0.09131057
     atom   49 type  1   force =     0.01181663    0.00814777   -0.07552563
     atom   50 type  1   force =    -0.04316535    0.09449158   -0.05062710
     atom   51 type  1   force =    -0.05037101   -0.00515919    0.10805264
     atom   52 type  1   force =    -0.10136865    0.04606904   -0.00580620
     atom   53 type  1   force =    -0.04679588   -0.02213697   -0.06722190
     atom   54 type  1   force =     0.02316600    0.07494257   -0.00373393
     atom   55 type  1   force =    -0.04375103    0.07657965    0.07687504
     atom   56 type  1   force =    -0.06100099   -0.02937993   -0.07652047
     atom   57 type  1   force =     0.05588743    0.02822449   -0.02547857
     atom   58 type  1   force =     0.02481404   -0.07619109    0.03443518
     atom   59 type  1   force =     0.01699526    0.00538619   -0.01240794
     atom   60 type  1   force =    -0.00385724    0.00365906    0.02377257
     atom   61 type  1   force =    -0.06973043   -0.00681067   -0.02267011
     atom   62 type  1   force =     0.03660804    0.00497325   -0.04599310
     atom   63 type  1   force =    -0.01690729    0.03118965    0.01884470
     atom   64 type  1   force =    -0.03050519   -0.03591855    0.10583777
     atom   65 type  2   force =     0.00000000    0.00000000    0.00000000
     atom   66 type  2   force =     0.00000000    0.00000000    0.00000000
     atom   67 type  2   force =     0.00000000    0.00000000    0.00000000
[...]
     atom   25 type  1   force =     0.00000000    0.00000000    0.00000000
     atom   26 type  1   force =     0.00000000    0.00000000    0.00000000
     atom   27 type  1   force =     0.00000000    0.00000000    0.00000000
     atom   28 type  1   force =     0.00000000    0.00000000    0.00000000
     atom   29 type  1   force =     0.00000000    0.00000000    0.00000000
     atom   30 type  1   force =     0.00000000    0.00000000    0.00000000
     atom   31 type  1   force =     0.00000000    0.00000000    0.00000000
     atom   32 type  1   force =     0.00000000    0.00000000    0.00000000
     atom   33 type  1   force =     0.00000000    0.00000000    0.00000000
     atom   34 type  1   force =     0.00000000    0.00000000    0.00000000
     atom   35 type  1   force =     0.00000000    0.00000000    0.00000000
     atom   36 type  1   force =     0.00000000    0.00000000    0.00000000
     atom   37 type  1   force =     0.00000000    0.00000000    0.00000000
     atom   38 type  1   force =     0.00000000    0.00000000    0.00000000
     atom   39 type  1   force =     0.00000000    0.00000000    0.00000000
     atom   40 type  1   force =     0.00000000    0.00000000    0.00000000
     atom   41 type  1   force =     0.00000000    0.00000000    0.00000000
     atom   42 type  1   force =     0.00000000    0.00000000    0.00000000
     atom   43 type  1   force =     0.00000000    0.00000000    0.00000000
     atom   44 type  1   force =     0.00000000    0.00000000    0.00000000
     atom   45 type  1   force =     0.00000000    0.00000000    0.00000000
     atom   46 type  1   force =     0.00000000    0.00000000    0.00000000
     atom   47 type  1   force =     0.00000000    0.00000000    0.00000000
     atom   48 type  1   force =     0.00000000    0.00000000    0.00000000
     atom   49 type  1   force =     0.00000000    0.00000000    0.00000000
     atom   50 type  1   force =     0.00000000    0.00000000    0.00000000
     atom   51 type  1   force =     0.00000000    0.00000000    0.00000000
     atom   52 type  1   force =     0.00000000    0.00000000    0.00000000
     atom   53 type  1   force =     0.00000000    0.00000000    0.00000000
     atom   54 type  1   force =     0.00000000    0.00000000    0.00000000
     atom   55 type  1   force =     0.00000000    0.00000000    0.00000000
     atom   56 type  1   force =     0.00000000    0.00000000    0.00000000
     atom   57 type  1   force =     0.00000000    0.00000000    0.00000000
     atom   58 type  1   force =     0.00000000    0.00000000    0.00000000
     atom   59 type  1   force =     0.00000000    0.00000000    0.00000000
     atom   60 type  1   force =     0.00000000    0.00000000    0.00000000
     atom   61 type  1   force =     0.00000000    0.00000000    0.00000000
     atom   62 type  1   force =     0.00000000    0.00000000    0.00000000
     atom   63 type  1   force =     0.00000000    0.00000000    0.00000000
     atom   64 type  1   force =     0.00000000    0.00000000    0.00000000
     atom   65 type  2   force =     0.00000000    0.00000000    0.00000000
     atom   66 type  2   force =     0.00000000    0.00000000    0.00000000
     atom   67 type  2   force =     0.00000000    0.00000000    0.00000000
     atom   68 type  2   force =     0.00000000    0.00000000    0.00000000
     atom   69 type  2   force =     0.00000000    0.00000000    0.00000000
     atom   70 type  2   force =     0.00000000    0.00000000    0.00000000
     atom   71 type  2   force =     0.00000000    0.00000000    0.00000000
     atom   72 type  2   force =     0.00000000    0.00000000    0.00000000
     The Hubbard contrib.    to forces
     atom    1 type  1   force =     0.00000000    0.00000000    0.00000000
     atom    2 type  1   force =     0.00000000    0.00000000    0.00000000
     atom    3 type  1   force =     0.00000000    0.00000000    0.00000000
     atom    4 type  1   force =     0.00000000    0.00000000    0.00000000
     atom    5 type  1   force =     0.00000000    0.00000000    0.00000000
     atom    6 type  1   force =     0.00000000    0.00000000    0.00000000
     atom    7 type  1   force =     0.00000000    0.00000000    0.00000000
     atom    8 type  1   force =     0.00000000    0.00000000    0.00000000
     atom    9 type  1   force =     0.00000000    0.00000000    0.00000000
     atom   10 type  1   force =     0.00000000    0.00000000    0.00000000
     atom   11 type  1   force =     0.00000000    0.00000000    0.00000000
     atom   12 type  1   force =     0.00000000    0.00000000    0.00000000
     atom   13 type  1   force =     0.00000000    0.00000000    0.00000000
     atom   14 type  1   force =     0.00000000    0.00000000    0.00000000
     atom   15 type  1   force =     0.00000000    0.00000000    0.00000000
     atom   16 type  1   force =     0.00000000    0.00000000    0.00000000
     atom   17 type  1   force =     0.00000000    0.00000000    0.00000000
     atom   18 type  1   force =     0.00000000    0.00000000    0.00000000
     atom   19 type  1   force =     0.00000000    0.00000000    0.00000000
     atom   20 type  1   force =     0.00000000    0.00000000    0.00000000
     atom   21 type  1   force =     0.00000000    0.00000000    0.00000000
     atom   22 type  1   force =     0.00000000    0.00000000    0.00000000
     atom   23 type  1   force =     0.00000000    0.00000000    0.00000000
     atom   24 type  1   force =     0.00000000    0.00000000    0.00000000
     atom   25 type  1   force =     0.00000000    0.00000000    0.00000000
     atom   26 type  1   force =     0.00000000    0.00000000    0.00000000
     atom   27 type  1   force =     0.00000000    0.00000000    0.00000000
     atom   28 type  1   force =     0.00000000    0.00000000    0.00000000
     atom   29 type  1   force =     0.00000000    0.00000000    0.00000000
     atom   30 type  1   force =     0.00000000    0.00000000    0.00000000
     atom   31 type  1   force =     0.00000000    0.00000000    0.00000000
     atom   32 type  1   force =     0.00000000    0.00000000    0.00000000
     atom   33 type  1   force =     0.00000000    0.00000000    0.00000000
     atom   34 type  1   force =     0.00000000    0.00000000    0.00000000
     atom   35 type  1   force =     0.00000000    0.00000000    0.00000000
     atom   36 type  1   force =     0.00000000    0.00000000    0.00000000
     atom   37 type  1   force =     0.00000000    0.00000000    0.00000000
     atom   38 type  1   force =     0.00000000    0.00000000    0.00000000
     atom   39 type  1   force =     0.00000000    0.00000000    0.00000000
     atom   40 type  1   force =     0.00000000    0.00000000    0.00000000
     atom   41 type  1   force =     0.00000000    0.00000000    0.00000000
     atom   42 type  1   force =     0.00000000    0.00000000    0.00000000
     atom   43 type  1   force =     0.00000000    0.00000000    0.00000000
     atom   44 type  1   force =     0.00000000    0.00000000    0.00000000
     atom   45 type  1   force =     0.00000000    0.00000000    0.00000000
     atom   46 type  1   force =     0.00000000    0.00000000    0.00000000
     atom   47 type  1   force =     0.00000000    0.00000000    0.00000000
     atom   48 type  1   force =     0.00000000    0.00000000    0.00000000
     atom   49 type  1   force =     0.00000000    0.00000000    0.00000000
     atom   50 type  1   force =     0.00000000    0.00000000    0.00000000
     atom   51 type  1   force =     0.00000000    0.00000000    0.00000000
     atom   52 type  1   force =     0.00000000    0.00000000    0.00000000
     atom   53 type  1   force =     0.00000000    0.00000000    0.00000000
     atom   54 type  1   force =     0.00000000    0.00000000    0.00000000
     atom   55 type  1   force =     0.00000000    0.00000000    0.00000000
     atom   56 type  1   force =     0.00000000    0.00000000    0.00000000
     atom   57 type  1   force =     0.00000000    0.00000000    0.00000000
     atom   58 type  1   force =     0.00000000    0.00000000    0.00000000
     atom   59 type  1   force =     0.00000000    0.00000000    0.00000000
     atom   60 type  1   force =     0.00000000    0.00000000    0.00000000
     atom   61 type  1   force =     0.00000000    0.00000000    0.00000000
     atom   62 type  1   force =     0.00000000    0.00000000    0.00000000
     atom   63 type  1   force =     0.00000000    0.00000000    0.00000000
     atom   64 type  1   force =     0.00000000    0.00000000    0.00000000
     atom   65 type  2   force =     0.00000000    0.00000000    0.00000000
     atom   66 type  2   force =     0.00000000    0.00000000    0.00000000
     atom   67 type  2   force =     0.00000000    0.00000000    0.00000000
     atom   68 type  2   force =     0.00000000    0.00000000    0.00000000
     atom   69 type  2   force =     0.00000000    0.00000000    0.00000000
     atom   70 type  2   force =     0.00000000    0.00000000    0.00000000
     atom   71 type  2   force =     0.00000000    0.00000000    0.00000000
     atom   72 type  2   force =     0.00000000    0.00000000    0.00000000
     The SCF correction term to forces
     atom    1 type  1   force =    -0.00001474    0.00000285    0.00000401
     atom    2 type  1   force =     0.00001303   -0.00000105   -0.00000691
     atom    3 type  1   force =     0.00001482   -0.00000645   -0.00000996
     atom    4 type  1   force =    -0.00001496   -0.00000986   -0.00001371
     atom    5 type  1   force =     0.00000859    0.00000873   -0.00001060
     atom    6 type  1   force =     0.00001542    0.00000680    0.00000649
     atom    7 type  1   force =     0.00000847   -0.00000765   -0.00000573
     atom    8 type  1   force =     0.00001592    0.00000588   -0.00000668
     atom    9 type  1   force =     0.00001672    0.00000428    0.00001180
     atom   10 type  1   force =    -0.00000468   -0.00000067    0.00000746
     atom   11 type  1   force =     0.00001395   -0.00000843    0.00000936
     atom   12 type  1   force =     0.00001574    0.00000959    0.00000357
     atom   13 type  1   force =    -0.00002094    0.00000974    0.00001472
     atom   14 type  1   force =     0.00001426    0.00000104   -0.00001010
     atom   15 type  1   force =    -0.00000262   -0.00000839   -0.00001176
     atom   16 type  1   force =    -0.00001083   -0.00000857    0.00001114
     atom   17 type  1   force =     0.00000062    0.00000869    0.00000664
     atom   18 type  1   force =    -0.00001804    0.00000777    0.00000282
     atom   19 type  1   force =     0.00000793   -0.00000221   -0.00001649
     atom   20 type  1   force =     0.00001502   -0.00000673    0.00000535
     atom   21 type  1   force =    -0.00001487    0.00000705   -0.00000239
     atom   22 type  1   force =     0.00001725    0.00000231    0.00000791
     atom   23 type  1   force =     0.00001412   -0.00000562    0.00000476
     atom   24 type  1   force =    -0.00000355   -0.00000843    0.00001213
     atom   25 type  1   force =     0.00000812   -0.00000265    0.00000828
     atom   26 type  1   force =    -0.00000308   -0.00001097   -0.00000564
     atom   27 type  1   force =     0.00001328   -0.00000403   -0.00000765
     atom   28 type  1   force =     0.00000412    0.00000697    0.00001205
     atom   29 type  1   force =     0.00000458    0.00000478   -0.00001276
     atom   30 type  1   force =    -0.00000610    0.00000257   -0.00001370
     atom   31 type  1   force =     0.00000512    0.00000555    0.00001640
     atom   32 type  1   force =    -0.00000579    0.00000656    0.00000848
     atom   33 type  1   force =    -0.00000462    0.00000124   -0.00000305
     atom   34 type  1   force =    -0.00001426   -0.00000631   -0.00000832
     atom   35 type  1   force =     0.00000972    0.00000797   -0.00001620
     atom   36 type  1   force =     0.00000689    0.00000422   -0.00000396
     atom   37 type  1   force =    -0.00001102    0.00000641    0.00000930
     atom   38 type  1   force =     0.00000655    0.00000845    0.00001261
     atom   39 type  1   force =     0.00001517   -0.00000755   -0.00000956
     atom   40 type  1   force =    -0.00000491    0.00000247    0.00001221
     atom   41 type  1   force =     0.00001945    0.00000570    0.00001149
     atom   42 type  1   force =    -0.00000642   -0.00000086    0.00000780
     atom   43 type  1   force =    -0.00001517    0.00000467    0.00001396
     atom   44 type  1   force =    -0.00001675   -0.00000723    0.00001142
     atom   45 type  1   force =    -0.00000964   -0.00000936   -0.00000251
     atom   46 type  1   force =    -0.00000755   -0.00000475   -0.00000223
     atom   47 type  1   force =    -0.00000975   -0.00000833    0.00001607
     atom   48 type  1   force =    -0.00001382   -0.00000552    0.00000166
     atom   49 type  1   force =    -0.00000580   -0.00000453   -0.00000874
     atom   50 type  1   force =    -0.00001161    0.00000064   -0.00000264
     atom   51 type  1   force =    -0.00000856    0.00001000   -0.00001514
     atom   52 type  1   force =     0.00001104   -0.00000754   -0.00001140
     atom   53 type  1   force =    -0.00000687   -0.00000802   -0.00000363
     atom   54 type  1   force =     0.00000536   -0.00000638   -0.00001246
     atom   55 type  1   force =    -0.00001830    0.00000288    0.00000846
     atom   56 type  1   force =     0.00001046   -0.00000074    0.00001356
     atom   57 type  1   force =     0.00001302    0.00000536   -0.00001278
     atom   58 type  1   force =    -0.00001243   -0.00000391   -0.00001171
     atom   59 type  1   force =    -0.00001384   -0.00000640   -0.00000997
     atom   60 type  1   force =     0.00000414    0.00000880   -0.00000380
     atom   61 type  1   force =    -0.00001182    0.00000986   -0.00000960
     atom   62 type  1   force =     0.00001621   -0.00001017    0.00001048
     atom   63 type  1   force =    -0.00001086    0.00001172   -0.00001240
     atom   64 type  1   force =     0.00000118   -0.00000589    0.00000563
     atom   65 type  2   force =    -0.00000413    0.00000247   -0.00000003
     atom   66 type  2   force =     0.00000359   -0.00000187   -0.00000201
     atom   67 type  2   force =     0.00000407    0.00000069    0.00000105
     atom   68 type  2   force =    -0.00000374   -0.00000296    0.00000149
     atom   69 type  2   force =    -0.00000271    0.00000156   -0.00000121
     atom   70 type  2   force =     0.00000069    0.00000214   -0.00000193
     atom   71 type  2   force =    -0.00000325    0.00000152   -0.00000436
     atom   72 type  2   force =    -0.00000299    0.00000223   -0.00000347

     Total force =     0.125663     Total SCF correction =     0.000135


     Computing stress (Cartesian axis) and pressure

          total   stress  (Ry/bohr**3)                   (kbar)     P=   -2.04
   0.00003530   0.00001384   0.00004883          5.19      2.04      7.18
   0.00001384   0.00001773  -0.00000529          2.04      2.61     -0.78
   0.00004883  -0.00000529  -0.00009456          7.18     -0.78    -13.91

     kinetic stress (kbar)   2324.20     -3.02     11.81
                               -3.02   2318.31     -1.97
                               11.81     -1.97   2303.56

     local   stress (kbar)  -1170.69     -8.69     10.08
                               -8.69  -1386.14     27.21
                               10.08     27.21  -1248.92

     nonloc. stress (kbar)   2541.62     -5.24      0.43
                               -5.24   2540.56     -6.22
                                0.43     -6.22   2536.33

     hartree stress (kbar)    202.09      6.69     -5.88
                                6.69    281.61      0.48
                               -5.88      0.48    233.61

     exc-cor stress (kbar)   -814.96      0.32      0.06
                                0.32   -814.80     -0.08
                                0.06     -0.08   -814.97

     corecor stress (kbar)      0.00      0.00      0.00
                                0.00      0.00      0.00
                                0.00      0.00      0.00

     ewald   stress (kbar)  -3077.07     11.97     -9.31
                               11.97  -2936.92    -20.20
                               -9.31    -20.20  -3023.52

     hubbard stress (kbar)      0.00      0.00      0.00
                                0.00      0.00      0.00
                                0.00      0.00      0.00

     london  stress (kbar)      0.00      0.00      0.00
                                0.00      0.00      0.00
                                0.00      0.00      0.00

     DFT-D3  stress (kbar)      0.00      0.00      0.00
                                0.00      0.00      0.00
                                0.00      0.00      0.00

     XDM     stress (kbar)      0.00      0.00      0.00
                                0.00      0.00      0.00
                                0.00      0.00      0.00

     dft-nl  stress (kbar)      0.00      0.00      0.00
                                0.00      0.00      0.00
                                0.00      0.00      0.00

     TS-vdW  stress (kbar)      0.00      0.00      0.00
                                0.00      0.00      0.00
                                0.00      0.00      0.00



     Writing output data file liquid_optimize1.save

     init_run     :     23.27s CPU     24.59s WALL (       1 calls)
     electrons    :    898.98s CPU    982.11s WALL (       1 calls)
     forces       :      5.66s CPU      5.74s WALL (       1 calls)
     stress       :     36.35s CPU     36.76s WALL (       1 calls)

     Called by init_run:
     wfcinit      :     22.62s CPU     23.89s WALL (       1 calls)
     wfcinit:atom :      0.13s CPU      0.26s WALL (      14 calls)
     wfcinit:wfcr :     20.77s CPU     21.72s WALL (      14 calls)
     potinit      :      0.16s CPU      0.18s WALL (       1 calls)

     Called by electrons:
     c_bands      :    790.47s CPU    857.18s WALL (      20 calls)
     sum_band     :    106.46s CPU    112.57s WALL (      20 calls)
     v_of_rho     :      1.73s CPU      1.79s WALL (      20 calls)
     v_h          :      0.10s CPU      0.10s WALL (      20 calls)
     v_xc         :      1.64s CPU      1.69s WALL (      20 calls)
     mix_rho      :      0.33s CPU      0.37s WALL (      20 calls)

     Called by c_bands:
     init_us_2    :      6.12s CPU      6.24s WALL (     602 calls)
     cegterg      :    780.05s CPU    824.67s WALL (     280 calls)

     Called by sum_band:

     Called by *egterg:
     h_psi        :    554.90s CPU    581.40s WALL (    1189 calls)
     g_psi        :      2.08s CPU      2.10s WALL (     895 calls)
     cdiaghg      :     79.23s CPU     79.77s WALL (    1161 calls)
     cegterg:over :     63.25s CPU     64.51s WALL (     895 calls)
     cegterg:upda :     43.42s CPU     43.72s WALL (     895 calls)
     cegterg:last :     23.06s CPU     23.20s WALL (     280 calls)

     Called by h_psi:
     h_psi:pot    :    551.00s CPU    577.30s WALL (    1189 calls)
     h_psi:calbec :     49.49s CPU     50.26s WALL (    1189 calls)
     vloc_psi     :    451.65s CPU    476.88s WALL (    1189 calls)
     add_vuspsi   :     49.85s CPU     50.15s WALL (    1189 calls)

     General routines
     calbec       :     56.95s CPU     57.83s WALL (    1259 calls)
     fft          :      0.86s CPU      0.93s WALL (     229 calls)
     fftw         :    503.80s CPU    533.48s WALL (  257268 calls)

     Parallel routines
     fft_scatt_xy :     60.18s CPU     63.57s WALL (  257497 calls)
     fft_scatt_yz :    106.86s CPU    121.78s WALL (  257497 calls)

     PWSCF        : 16m 4.88s CPU    17m34.49s WALL


   This run was terminated on:   8:49:59   7Nov2020            

=------------------------------------------------------------------------------=
   JOB DONE.
=------------------------------------------------------------------------------=
