
     Program PWSCF v.6.2 (svn rev. 14038) starts on  7Nov2020 at  8:38:24 

     This program is part of the open-source Quantum ESPRESSO suite
     for quantum simulation of materials; please cite
         "P. Giannozzi et al., J. Phys.:Condens. Matter 21 395502 (2009);
         "P. Giannozzi et al., J. Phys.:Condens. Matter 29 465901 (2017);
          URL http://www.quantum-espresso.org", 
     in publications or presentations arising from this work. More details at
     http://www.quantum-espresso.org/quote

     Parallel version (MPI), running on     8 processors

     MPI processes distributed on     1 nodes
     R & G space division:  proc/nbgrp/npool/nimage =       8
     Waiting for input...
     Reading input from standard input
Warning: card &IONS ignored
Warning: card / ignored

     Current dimensions of program PWSCF are:
     Max number of different atomic species (ntypx) = 10
     Max number of k-points (npk) =  40000
     Max angular momentum in pseudopotentials (lmaxx) =  3

     Subspace diagonalization in iterative solution of the eigenvalue problem:
     a serial algorithm will be used


     Parallelization info
     --------------------
     sticks:   dense  smooth     PW     G-vecs:    dense   smooth      PW
     Min         712     712    185                40336    40336    5464
     Max         714     714    187                40337    40337    5470
     Sum        5705    5705   1489               322693   322693   43723



     bravais-lattice index     =            0
     lattice parameter (alat)  =      20.6245  a.u.
     unit-cell volume          =    8773.0332 (a.u.)^3
     number of atoms/cell      =           72
     number of atomic types    =            2
     number of electrons       =       264.00
     number of Kohn-Sham states=          158
     kinetic-energy cutoff     =      42.0000  Ry
     charge density cutoff     =     168.0000  Ry
     convergence threshold     =      1.0E-08
     mixing beta               =       0.3000
     number of iterations used =            8  plain     mixing
     Exchange-correlation      = SLA-PW-PBX-PBC ( 1  4  3  4 0 0)

     celldm(1)=  20.624492  celldm(2)=   0.000000  celldm(3)=   0.000000
     celldm(4)=   0.000000  celldm(5)=   0.000000  celldm(6)=   0.000000

     crystal axes: (cart. coord. in units of alat)
               a(1) = (   1.000000   0.000000   0.000000 )  
               a(2) = (   0.000000   1.000000   0.000000 )  
               a(3) = (   0.000000   0.000000   1.000000 )  

     reciprocal axes: (cart. coord. in units 2 pi/alat)
               b(1) = (  1.000000  0.000000  0.000000 )  
               b(2) = (  0.000000  1.000000  0.000000 )  
               b(3) = (  0.000000  0.000000  1.000000 )  


     PseudoPot. # 1 for Si read from file:
     ./Si.pbe-hgh.UPF
     MD5 check sum: 9a9f0f6e09139bfdb36b03ff6bc35900
     Pseudo is Norm-conserving, Zval =  4.0
     Generated in analytical, separable form
     Using radial grid of 1141 points,  3 beta functions with: 
                l(1) =   0
                l(2) =   0
                l(3) =   1

     PseudoPot. # 2 for H  read from file:
     ./H.pbe-hgh.UPF
     MD5 check sum: 5f350582108a937bec95f27f5610ab08
     Pseudo is Norm-conserving, Zval =  1.0
     Generated in analytical, separable form
     Using radial grid of  929 points,  0 beta functions with: 

     atomic species   valence    mass     pseudopotential
        Si             4.00    28.08000     Si( 1.00)
        H              1.00     1.00784     H ( 1.00)

     No symmetry found


                                    s                        frac. trans.

      isym =  1     identity                                     

 cryst.   s( 1) = (     1          0          0      )
                  (     0          1          0      )
                  (     0          0          1      )

 cart.    s( 1) = (  1.0000000  0.0000000  0.0000000 )
                  (  0.0000000  1.0000000  0.0000000 )
                  (  0.0000000  0.0000000  1.0000000 )


   Cartesian axes

     site n.     atom                  positions (alat units)
         1           Si  tau(   1) = (   0.8127750   0.5517410   0.1150340  )
         2           Si  tau(   2) = (   0.5535330   0.1940040   0.8987130  )
         3           Si  tau(   3) = (   0.6857500   0.6966540   0.5911510  )
         4           Si  tau(   4) = (   0.1956220   0.6875700   0.6559130  )
         5           Si  tau(   5) = (   0.7277460   0.9046840   0.1029020  )
         6           Si  tau(   6) = (   0.1503170   0.8867530   0.7338660  )
         7           Si  tau(   7) = (   0.9956460   0.2983600   0.7025180  )
         8           Si  tau(   8) = (   0.5110160   0.4856810   0.3242830  )
         9           Si  tau(   9) = (   0.0425643   0.5982290   0.2171810  )
        10           Si  tau(  10) = (   0.3188930   0.8971320   0.4580690  )
        11           Si  tau(  11) = (   0.0135923   0.2852430   0.4871630  )
        12           Si  tau(  12) = (   0.1064460   0.8873540   0.4179250  )
        13           Si  tau(  13) = (   0.4742810   0.3923730   0.6436330  )
        14           Si  tau(  14) = (   0.0131996   0.4733090   0.8242890  )
        15           Si  tau(  15) = (   0.3632640   0.0648867   0.5928350  )
        16           Si  tau(  16) = (   0.2184140   0.5599270   0.8339520  )
        17           Si  tau(  17) = (   0.5296370   0.7360240   0.8434840  )
        18           Si  tau(  18) = (   0.8181640   0.3654160   0.4215580  )
        19           Si  tau(  19) = (   0.5175850   0.2967520   0.2060640  )
        20           Si  tau(  20) = (   0.4368170   0.9349170   0.2837030  )
        21           Si  tau(  21) = (   0.9819020   0.3958420   0.1715440  )
        22           Si  tau(  22) = (   0.0238304   0.7352020   0.0487229  )
        23           Si  tau(  23) = (   0.7115630   0.2313770   0.2791590  )
        24           Si  tau(  24) = (   0.8734490   0.3885670   0.9790700  )
        25           Si  tau(  25) = (   0.0443650   0.0254519   0.2656110  )
        26           Si  tau(  26) = (   0.8401930   0.5748720   0.7032110  )
        27           Si  tau(  27) = (   0.1845400   0.7611640   0.9082640  )
        28           Si  tau(  28) = (   0.6860780   0.4914940   0.9273060  )
        29           Si  tau(  29) = (   0.5010710   0.3849580   0.9970060  )
        30           Si  tau(  30) = (   0.3407850   0.6808610   0.5008690  )
        31           Si  tau(  31) = (   0.6853010   0.7095790   0.0034247  )
        32           Si  tau(  32) = (   0.0829107   0.1755320   0.8583730  )
        33           Si  tau(  33) = (   0.6559590   0.8943060   0.3042490  )
        34           Si  tau(  34) = (   0.4000560   0.0552809   0.9535800  )
        35           Si  tau(  35) = (   0.7936140   0.3589360   0.6473660  )
        36           Si  tau(  36) = (   0.3533130   0.2652580   0.5165100  )
        37           Si  tau(  37) = (   0.1310020   0.2981170   0.0393732  )
        38           Si  tau(  38) = (   0.9133210   0.0583614   0.9315430  )
        39           Si  tau(  39) = (   0.4391020   0.5268260   0.8112160  )
        40           Si  tau(  40) = (   0.7309190   0.5381660   0.3167320  )
        41           Si  tau(  41) = (   0.1976910   0.3216030   0.3787270  )
        42           Si  tau(  42) = (   0.8338040   0.7450810   0.8403400  )
        43           Si  tau(  43) = (   0.5228520   0.5691990   0.5321650  )
        44           Si  tau(  44) = (   0.6200670   0.2410130   0.7017630  )
        45           Si  tau(  45) = (   0.6328110   0.8748540   0.7021640  )
        46           Si  tau(  46) = (   0.2901050   0.5190760   0.3582910  )
        47           Si  tau(  47) = (   0.8144390   0.1951970   0.0756739  )
        48           Si  tau(  48) = (   0.3918170   0.1149050   0.1676420  )
        49           Si  tau(  49) = (   0.0136711   0.6149580   0.5751930  )
        50           Si  tau(  50) = (   0.9345180   0.0854530   0.4474800  )
        51           Si  tau(  51) = (   0.3648430   0.7780130   0.1540480  )
        52           Si  tau(  52) = (   0.9418410   0.9253520   0.0990555  )
        53           Si  tau(  53) = (   0.9865130   0.7145160   0.3882700  )
        54           Si  tau(  54) = (   0.2490970   0.5972070   0.1671780  )
        55           Si  tau(  55) = (   0.5816500   0.0573658   0.5946430  )
        56           Si  tau(  56) = (   0.8281250   0.9496150   0.7623130  )
        57           Si  tau(  57) = (   0.5332700   0.6446860   0.1692480  )
        58           Si  tau(  58) = (   0.1902690   0.1791420   0.2112480  )
        59           Si  tau(  59) = (   0.2594200   0.0658125   0.7867560  )
        60           Si  tau(  60) = (   0.7728780   0.7343060   0.4008060  )
        61           Si  tau(  61) = (   0.7170210   0.0667053   0.4170940  )
        62           Si  tau(  62) = (   0.3790350   0.8421000   0.9529380  )
        63           Si  tau(  63) = (   0.2839840   0.4471460   0.0121684  )
        64           Si  tau(  64) = (   0.9843380   0.9408510   0.6044820  )
        65           H   tau(  65) = (   0.4930650   0.5350980   0.0757131  )
        66           H   tau(  66) = (   0.0543724   0.4877150   0.5334460  )
        67           H   tau(  67) = (   0.9674080   0.7623220   0.8838890  )
        68           H   tau(  68) = (   0.9135350   0.6560180   0.9977650  )
        69           H   tau(  69) = (   0.9407730   0.1962530   0.1472590  )
        70           H   tau(  70) = (   0.6752280   0.1828500   0.9831850  )
        71           H   tau(  71) = (   0.6019090   0.7301170   0.2632730  )
        72           H   tau(  72) = (   0.4529700   0.2494880   0.4171250  )

   Crystallographic axes

     site n.     atom                  positions (cryst. coord.)
         1           Si  tau(   1) = (  0.8127750  0.5517410  0.1150340  )
         2           Si  tau(   2) = (  0.5535330  0.1940040  0.8987130  )
         3           Si  tau(   3) = (  0.6857500  0.6966540  0.5911510  )
         4           Si  tau(   4) = (  0.1956220  0.6875700  0.6559130  )
         5           Si  tau(   5) = (  0.7277460  0.9046840  0.1029020  )
         6           Si  tau(   6) = (  0.1503170  0.8867530  0.7338660  )
         7           Si  tau(   7) = (  0.9956460  0.2983600  0.7025180  )
         8           Si  tau(   8) = (  0.5110160  0.4856810  0.3242830  )
         9           Si  tau(   9) = (  0.0425643  0.5982290  0.2171810  )
        10           Si  tau(  10) = (  0.3188930  0.8971320  0.4580690  )
        11           Si  tau(  11) = (  0.0135923  0.2852430  0.4871630  )
        12           Si  tau(  12) = (  0.1064460  0.8873540  0.4179250  )
        13           Si  tau(  13) = (  0.4742810  0.3923730  0.6436330  )
        14           Si  tau(  14) = (  0.0131996  0.4733090  0.8242890  )
        15           Si  tau(  15) = (  0.3632640  0.0648867  0.5928350  )
        16           Si  tau(  16) = (  0.2184140  0.5599270  0.8339520  )
        17           Si  tau(  17) = (  0.5296370  0.7360240  0.8434840  )
        18           Si  tau(  18) = (  0.8181640  0.3654160  0.4215580  )
        19           Si  tau(  19) = (  0.5175850  0.2967520  0.2060640  )
        20           Si  tau(  20) = (  0.4368170  0.9349170  0.2837030  )
        21           Si  tau(  21) = (  0.9819020  0.3958420  0.1715440  )
        22           Si  tau(  22) = (  0.0238304  0.7352020  0.0487229  )
        23           Si  tau(  23) = (  0.7115630  0.2313770  0.2791590  )
        24           Si  tau(  24) = (  0.8734490  0.3885670  0.9790700  )
        25           Si  tau(  25) = (  0.0443650  0.0254519  0.2656110  )
        26           Si  tau(  26) = (  0.8401930  0.5748720  0.7032110  )
        27           Si  tau(  27) = (  0.1845400  0.7611640  0.9082640  )
        28           Si  tau(  28) = (  0.6860780  0.4914940  0.9273060  )
        29           Si  tau(  29) = (  0.5010710  0.3849580  0.9970060  )
        30           Si  tau(  30) = (  0.3407850  0.6808610  0.5008690  )
        31           Si  tau(  31) = (  0.6853010  0.7095790  0.0034247  )
        32           Si  tau(  32) = (  0.0829107  0.1755320  0.8583730  )
        33           Si  tau(  33) = (  0.6559590  0.8943060  0.3042490  )
        34           Si  tau(  34) = (  0.4000560  0.0552809  0.9535800  )
        35           Si  tau(  35) = (  0.7936140  0.3589360  0.6473660  )
        36           Si  tau(  36) = (  0.3533130  0.2652580  0.5165100  )
        37           Si  tau(  37) = (  0.1310020  0.2981170  0.0393732  )
        38           Si  tau(  38) = (  0.9133210  0.0583614  0.9315430  )
        39           Si  tau(  39) = (  0.4391020  0.5268260  0.8112160  )
        40           Si  tau(  40) = (  0.7309190  0.5381660  0.3167320  )
        41           Si  tau(  41) = (  0.1976910  0.3216030  0.3787270  )
        42           Si  tau(  42) = (  0.8338040  0.7450810  0.8403400  )
        43           Si  tau(  43) = (  0.5228520  0.5691990  0.5321650  )
        44           Si  tau(  44) = (  0.6200670  0.2410130  0.7017630  )
        45           Si  tau(  45) = (  0.6328110  0.8748540  0.7021640  )
        46           Si  tau(  46) = (  0.2901050  0.5190760  0.3582910  )
        47           Si  tau(  47) = (  0.8144390  0.1951970  0.0756739  )
        48           Si  tau(  48) = (  0.3918170  0.1149050  0.1676420  )
        49           Si  tau(  49) = (  0.0136711  0.6149580  0.5751930  )
        50           Si  tau(  50) = (  0.9345180  0.0854530  0.4474800  )
        51           Si  tau(  51) = (  0.3648430  0.7780130  0.1540480  )
        52           Si  tau(  52) = (  0.9418410  0.9253520  0.0990555  )
        53           Si  tau(  53) = (  0.9865130  0.7145160  0.3882700  )
        54           Si  tau(  54) = (  0.2490970  0.5972070  0.1671780  )
        55           Si  tau(  55) = (  0.5816500  0.0573658  0.5946430  )
        56           Si  tau(  56) = (  0.8281250  0.9496150  0.7623130  )
        57           Si  tau(  57) = (  0.5332700  0.6446860  0.1692480  )
        58           Si  tau(  58) = (  0.1902690  0.1791420  0.2112480  )
        59           Si  tau(  59) = (  0.2594200  0.0658125  0.7867560  )
        60           Si  tau(  60) = (  0.7728780  0.7343060  0.4008060  )
        61           Si  tau(  61) = (  0.7170210  0.0667053  0.4170940  )
        62           Si  tau(  62) = (  0.3790350  0.8421000  0.9529380  )
        63           Si  tau(  63) = (  0.2839840  0.4471460  0.0121684  )
        64           Si  tau(  64) = (  0.9843380  0.9408510  0.6044820  )
        65           H   tau(  65) = (  0.4930650  0.5350980  0.0757131  )
        66           H   tau(  66) = (  0.0543724  0.4877150  0.5334460  )
        67           H   tau(  67) = (  0.9674080  0.7623220  0.8838890  )
        68           H   tau(  68) = (  0.9135350  0.6560180  0.9977650  )
        69           H   tau(  69) = (  0.9407730  0.1962530  0.1472590  )
        70           H   tau(  70) = (  0.6752280  0.1828500  0.9831850  )
        71           H   tau(  71) = (  0.6019090  0.7301170  0.2632730  )
        72           H   tau(  72) = (  0.4529700  0.2494880  0.4171250  )

     number of k points=    14  Marzari-Vanderbilt smearing, width (Ry)=  0.0500
                       cart. coord. in units 2pi/alat
        k(    1) = (   0.0000000   0.0000000   0.0000000), wk =   0.0740741
        k(    2) = (   0.0000000   0.0000000   0.3333333), wk =   0.1481481
        k(    3) = (   0.0000000   0.3333333   0.3333333), wk =   0.1481481
        k(    4) = (   0.3333333   0.3333333   0.3333333), wk =   0.1481481
        k(    5) = (   0.3333333   0.0000000   0.0000000), wk =   0.1481481
        k(    6) = (   0.0000000   0.3333333   0.0000000), wk =   0.1481481
        k(    7) = (   0.0000000  -0.3333333   0.3333333), wk =   0.1481481
        k(    8) = (   0.3333333   0.0000000  -0.3333333), wk =   0.1481481
        k(    9) = (  -0.3333333   0.0000000  -0.3333333), wk =   0.1481481
        k(   10) = (   0.3333333  -0.3333333   0.0000000), wk =   0.1481481
        k(   11) = (  -0.3333333  -0.3333333   0.0000000), wk =   0.1481481
        k(   12) = (  -0.3333333  -0.3333333   0.3333333), wk =   0.1481481
        k(   13) = (  -0.3333333   0.3333333  -0.3333333), wk =   0.1481481
        k(   14) = (   0.3333333  -0.3333333  -0.3333333), wk =   0.1481481

                       cryst. coord.
        k(    1) = (   0.0000000   0.0000000   0.0000000), wk =   0.0740741
        k(    2) = (   0.0000000   0.0000000   0.3333333), wk =   0.1481481
        k(    3) = (   0.0000000   0.3333333   0.3333333), wk =   0.1481481
        k(    4) = (   0.3333333   0.3333333   0.3333333), wk =   0.1481481
        k(    5) = (   0.3333333   0.0000000   0.0000000), wk =   0.1481481
        k(    6) = (   0.0000000   0.3333333   0.0000000), wk =   0.1481481
        k(    7) = (   0.0000000  -0.3333333   0.3333333), wk =   0.1481481
        k(    8) = (   0.3333333   0.0000000  -0.3333333), wk =   0.1481481
        k(    9) = (  -0.3333333   0.0000000  -0.3333333), wk =   0.1481481
        k(   10) = (   0.3333333  -0.3333333   0.0000000), wk =   0.1481481
        k(   11) = (  -0.3333333  -0.3333333   0.0000000), wk =   0.1481481
        k(   12) = (  -0.3333333  -0.3333333   0.3333333), wk =   0.1481481
        k(   13) = (  -0.3333333   0.3333333  -0.3333333), wk =   0.1481481
        k(   14) = (   0.3333333  -0.3333333  -0.3333333), wk =   0.1481481

     Dense  grid:   322693 G-vectors     FFT dimensions: (  90,  90,  90)

     Dynamical RAM for                 wfc:      12.15 MB

     Dynamical RAM for     wfc (w. buffer):     182.26 MB

     Dynamical RAM for           str. fact:       1.23 MB

     Dynamical RAM for           local pot:       0.00 MB

     Dynamical RAM for          nlocal pot:      24.61 MB

     Dynamical RAM for                qrad:       1.17 MB

     Dynamical RAM for          rho,v,vnew:       4.07 MB

     Dynamical RAM for               rhoin:       1.36 MB

     Dynamical RAM for            rho*nmix:       9.85 MB

     Dynamical RAM for           G-vectors:       2.62 MB

     Dynamical RAM for          h,s,v(r/c):      18.28 MB

     Dynamical RAM for          <psi|beta>:       0.77 MB

     Dynamical RAM for                 psi:      48.60 MB

     Dynamical RAM for                hpsi:      48.60 MB

     Dynamical RAM for      wfcinit/wfcrot:      42.20 MB

     Estimated static dynamical RAM per process >     232.72 MB

     Estimated max dynamical RAM per process >     348.98 MB

     Estimated total dynamical RAM >       2.73 GB

     Initial potential from superposition of free atoms

     starting charge  263.96413, renormalised to  264.00000
     Starting wfc are  264 randomized atomic wfcs

     total cpu time spent up to now is       27.6 secs

     Self-consistent Calculation

     iteration #  1     ecut=    42.00 Ry     beta= 0.30
     Davidson diagonalization with overlap
     ethr =  1.00E-02,  avg # of iterations =  3.0

     Threshold (ethr) on eigenvalues was too large:
     Diagonalizing with lowered threshold

     Davidson diagonalization with overlap
     ethr =  8.06E-04,  avg # of iterations =  2.1

     total cpu time spent up to now is      133.7 secs

     total energy              =    -511.55482778 Ry
     Harris-Foulkes estimate   =    -512.03898527 Ry
     estimated scf accuracy    <       2.11716139 Ry

     iteration #  2     ecut=    42.00 Ry     beta= 0.30
     Davidson diagonalization with overlap
     ethr =  8.02E-04,  avg # of iterations =  2.7

     total cpu time spent up to now is      177.6 secs

     total energy              =    -511.48462005 Ry
     Harris-Foulkes estimate   =    -511.75693644 Ry
     estimated scf accuracy    <       1.15035641 Ry

     iteration #  3     ecut=    42.00 Ry     beta= 0.30
     Davidson diagonalization with overlap
     ethr =  4.36E-04,  avg # of iterations =  3.9

     total cpu time spent up to now is      225.2 secs

     total energy              =    -511.50082714 Ry
     Harris-Foulkes estimate   =    -511.69239868 Ry
     estimated scf accuracy    <       0.89100776 Ry

     iteration #  4     ecut=    42.00 Ry     beta= 0.30
     Davidson diagonalization with overlap
     ethr =  3.38E-04,  avg # of iterations =  2.2

     total cpu time spent up to now is      265.8 secs

     total energy              =    -511.55654390 Ry
     Harris-Foulkes estimate   =    -511.59498517 Ry
     estimated scf accuracy    <       0.16806158 Ry

     iteration #  5     ecut=    42.00 Ry     beta= 0.30
     Davidson diagonalization with overlap
     ethr =  6.37E-05,  avg # of iterations =  6.9

     total cpu time spent up to now is      328.3 secs

     total energy              =    -511.57347066 Ry
     Harris-Foulkes estimate   =    -511.58846960 Ry
     estimated scf accuracy    <       0.07876074 Ry

     iteration #  6     ecut=    42.00 Ry     beta= 0.30
     Davidson diagonalization with overlap
     ethr =  2.98E-05,  avg # of iterations =  3.1

     total cpu time spent up to now is      372.6 secs

     total energy              =    -511.58017034 Ry
     Harris-Foulkes estimate   =    -511.58249267 Ry
     estimated scf accuracy    <       0.01224960 Ry

     iteration #  7     ecut=    42.00 Ry     beta= 0.30
     Davidson diagonalization with overlap
     ethr =  4.64E-06,  avg # of iterations =  7.0

     total cpu time spent up to now is      439.7 secs

     total energy              =    -511.58084804 Ry
     Harris-Foulkes estimate   =    -511.58209475 Ry
     estimated scf accuracy    <       0.00566990 Ry

     iteration #  8     ecut=    42.00 Ry     beta= 0.30
     Davidson diagonalization with overlap
     ethr =  2.15E-06,  avg # of iterations =  3.9

     total cpu time spent up to now is      493.9 secs

     total energy              =    -511.58142878 Ry
     Harris-Foulkes estimate   =    -511.58180877 Ry
     estimated scf accuracy    <       0.00222891 Ry

     iteration #  9     ecut=    42.00 Ry     beta= 0.30
     Davidson diagonalization with overlap
     ethr =  8.44E-07,  avg # of iterations =  2.3

     total cpu time spent up to now is      540.6 secs

     total energy              =    -511.58160020 Ry
     Harris-Foulkes estimate   =    -511.58163498 Ry
     estimated scf accuracy    <       0.00020501 Ry

     iteration # 10     ecut=    42.00 Ry     beta= 0.30
     Davidson diagonalization with overlap
     ethr =  7.77E-08,  avg # of iterations =  3.5

     total cpu time spent up to now is      598.1 secs

     total energy              =    -511.58161764 Ry
     Harris-Foulkes estimate   =    -511.58164774 Ry
     estimated scf accuracy    <       0.00014591 Ry

     iteration # 11     ecut=    42.00 Ry     beta= 0.30
     Davidson diagonalization with overlap
     ethr =  5.53E-08,  avg # of iterations =  3.0

     total cpu time spent up to now is      647.0 secs

     total energy              =    -511.58163021 Ry
     Harris-Foulkes estimate   =    -511.58163964 Ry
     estimated scf accuracy    <       0.00004960 Ry

     iteration # 12     ecut=    42.00 Ry     beta= 0.30
     Davidson diagonalization with overlap
     ethr =  1.88E-08,  avg # of iterations =  3.0

     total cpu time spent up to now is      696.8 secs

     total energy              =    -511.58163536 Ry
     Harris-Foulkes estimate   =    -511.58163666 Ry
     estimated scf accuracy    <       0.00000899 Ry

     iteration # 13     ecut=    42.00 Ry     beta= 0.30
     Davidson diagonalization with overlap
     ethr =  3.41E-09,  avg # of iterations =  3.0

     total cpu time spent up to now is      746.7 secs

     total energy              =    -511.58163606 Ry
     Harris-Foulkes estimate   =    -511.58163677 Ry
     estimated scf accuracy    <       0.00000389 Ry

     iteration # 14     ecut=    42.00 Ry     beta= 0.30
     Davidson diagonalization with overlap
     ethr =  1.47E-09,  avg # of iterations =  3.0

     total cpu time spent up to now is      794.4 secs

     total energy              =    -511.58163659 Ry
     Harris-Foulkes estimate   =    -511.58163667 Ry
     estimated scf accuracy    <       0.00000128 Ry

     iteration # 15     ecut=    42.00 Ry     beta= 0.30
     Davidson diagonalization with overlap
     ethr =  4.84E-10,  avg # of iterations =  2.9

     total cpu time spent up to now is      837.7 secs

     total energy              =    -511.58163674 Ry
     Harris-Foulkes estimate   =    -511.58163673 Ry
     estimated scf accuracy    <       0.00000020 Ry

     iteration # 16     ecut=    42.00 Ry     beta= 0.30
     Davidson diagonalization with overlap
     ethr =  7.56E-11,  avg # of iterations =  3.1

     total cpu time spent up to now is      890.2 secs

     total energy              =    -511.58163676 Ry
     Harris-Foulkes estimate   =    -511.58163678 Ry
     estimated scf accuracy    <       0.00000015 Ry

     iteration # 17     ecut=    42.00 Ry     beta= 0.30
     Davidson diagonalization with overlap
     ethr =  5.81E-11,  avg # of iterations =  3.0

     total cpu time spent up to now is      935.1 secs

     total energy              =    -511.58163679 Ry
     Harris-Foulkes estimate   =    -511.58163678 Ry
     estimated scf accuracy    <       0.00000004 Ry

     iteration # 18     ecut=    42.00 Ry     beta= 0.30
     Davidson diagonalization with overlap
     ethr =  1.35E-11,  avg # of iterations =  3.0

     total cpu time spent up to now is      982.7 secs

     total energy              =    -511.58163680 Ry
     Harris-Foulkes estimate   =    -511.58163680 Ry
     estimated scf accuracy    <       0.00000002 Ry

     iteration # 19     ecut=    42.00 Ry     beta= 0.30
     Davidson diagonalization with overlap
     ethr =  7.46E-12,  avg # of iterations =  3.0

     total cpu time spent up to now is     1030.6 secs

     End of self-consistent calculation

          k = 0.0000 0.0000 0.0000 ( 40339 PWs)   bands (ev):

    -6.2335  -5.3188  -5.2152  -5.1073  -5.0174  -4.9050  -4.7871  -4.4270
    -4.2919  -4.2391  -4.1816  -4.0838  -4.0233  -3.8852  -3.8395  -3.7748
    -3.6773  -3.6423  -3.3594  -3.0856  -3.0391  -2.9445  -2.8413  -2.7362
    -2.6656  -2.4209  -2.2493  -2.2254  -2.1140  -1.9403  -1.8062  -1.5299
    -1.4453  -1.3543  -1.2204  -1.1717  -1.1175  -1.0184  -0.9365  -0.8233
    -0.8005  -0.6524  -0.5822  -0.4909  -0.4528  -0.4034  -0.2998  -0.1909
     0.0300   0.0471   0.1313   0.3308   0.3840   0.4881   0.5704   0.6738
     0.7508   0.8237   1.0347   1.2037   1.2074   1.3340   1.4235   1.5952
     1.6239   1.7251   1.7737   1.7948   1.9578   2.0601   2.1625   2.2053
     2.2553   2.2945   2.3969   2.5513   2.6092   2.6658   2.7210   2.9073
     2.9660   3.0476   3.1418   3.2430   3.2907   3.3848   3.4047   3.4315
     3.4891   3.5955   3.6474   3.7482   3.7622   3.7775   3.8436   3.8845
     3.9094   3.9547   3.9992   4.0175   4.0476   4.0975   4.2285   4.2483
     4.3016   4.3847   4.4322   4.4822   4.4962   4.5529   4.5949   4.6726
     4.7375   4.7852   4.9073   4.9257   4.9856   5.0452   5.1227   5.2349
     5.2824   5.4205   5.4613   5.5614   5.5980   5.6678   5.7849   5.9347
     5.9951   6.1088   6.1643   6.2683   6.4052   6.5836   6.6600   6.7913
     6.8437   6.9923   7.0225   7.1504   7.3004   7.4450   7.4641   7.4732
     7.5443   7.7292   7.7412   7.7805   7.8539   7.9031   7.9920   8.0199
     8.0706   8.1369   8.1813   8.2684   8.3393   8.3948

     occupation numbers 
     1.0000   1.0000   1.0000   1.0000   1.0000   1.0000   1.0000   1.0000
     1.0000   1.0000   1.0000   1.0000   1.0000   1.0000   1.0000   1.0000
     1.0000   1.0000   1.0000   1.0000   1.0000   1.0000   1.0000   1.0000
     1.0000   1.0000   1.0000   1.0000   1.0000   1.0000   1.0000   1.0000
     1.0000   1.0000   1.0000   1.0000   1.0000   1.0000   1.0000   1.0000
     1.0000   1.0000   1.0000   1.0000   1.0000   1.0000   1.0000   1.0000
     1.0000   1.0000   1.0000   1.0000   1.0000   1.0000   1.0000   1.0000
     1.0000   1.0000   1.0000   1.0000   1.0000   1.0000   1.0000   1.0000
     1.0000   1.0000   1.0000   1.0000   1.0000   1.0000   1.0000   1.0000
     1.0000   1.0000   1.0000   1.0000   1.0000   1.0000   1.0000   1.0000
     1.0000   1.0000   1.0000   1.0000   1.0000   1.0000   1.0000   1.0000
     1.0000   1.0000   1.0000   1.0000   1.0000   1.0000   1.0000   1.0000
     1.0000   1.0001   1.0001   1.0001   1.0002   1.0002   1.0006   1.0007
     1.0010   1.0017   1.0023   1.0032   1.0034   1.0048   1.0060   1.0090
     1.0124   1.0155   1.0258   1.0277   1.0343   1.0417   1.0522   1.0674
     1.0731   1.0831   1.0831   1.0743   1.0674   1.0480   0.9946   0.8873
     0.8329   0.7177   0.6574   0.5424   0.3973   0.2386   0.1847   0.1128
     0.0909   0.0464   0.0400   0.0205   0.0086   0.0034   0.0030   0.0028
     0.0017   0.0004   0.0004   0.0003   0.0002   0.0001   0.0000   0.0000
     0.0000   0.0000   0.0000   0.0000   0.0000   0.0000

          k = 0.0000 0.0000 0.3333 ( 40358 PWs)   bands (ev):

    -6.1582  -5.6246  -5.1714  -4.9969  -4.9694  -4.7976  -4.6693  -4.6004
    -4.4827  -4.4401  -4.2410  -4.0757  -3.9528  -3.8430  -3.7200  -3.6048
    -3.4850  -3.3982  -3.2994  -3.2028  -3.0954  -2.9560  -2.8722  -2.7182
    -2.4704  -2.3866  -2.3169  -2.2114  -2.0840  -1.9831  -1.8680  -1.7556
    -1.6802  -1.5812  -1.4177  -1.2810  -1.1548  -1.1229  -1.0679  -0.8842
    -0.7863  -0.7019  -0.5395  -0.5154  -0.3877  -0.2887  -0.2252  -0.0181
     0.0368   0.0893   0.3161   0.3558   0.4216   0.5073   0.6400   0.7374
     0.8083   0.9359   1.0915   1.1833   1.2571   1.4027   1.5605   1.6215
     1.7525   1.8022   1.9214   1.9729   2.0062   2.2066   2.2246   2.3187
     2.3294   2.4144   2.4944   2.5368   2.6479   2.6744   2.7531   2.8139
     2.9068   2.9385   3.0191   3.0448   3.1400   3.1593   3.2727   3.2872
     3.3711   3.4517   3.4763   3.5256   3.6184   3.6579   3.7010   3.7583
     3.8247   3.8977   3.9299   3.9815   4.0517   4.0798   4.1662   4.2111
     4.2676   4.3090   4.4168   4.4831   4.5165   4.5851   4.6093   4.6698
     4.7865   4.8289   4.8773   4.9913   5.0165   5.0863   5.1516   5.2783
     5.3471   5.3864   5.5447   5.5883   5.6576   5.7622   5.8243   5.9466
     6.1033   6.2274   6.2627   6.3607   6.5572   6.6110   6.7060   6.7745
     6.8997   7.1057   7.1514   7.2166   7.3133   7.3771   7.4565   7.5214
     7.5378   7.6437   7.7176   7.7418   7.9025   7.9365   7.9970   8.0151
     8.0370   8.1052   8.2177   8.2665   8.3311   8.4060

     occupation numbers 
     1.0000   1.0000   1.0000   1.0000   1.0000   1.0000   1.0000   1.0000
     1.0000   1.0000   1.0000   1.0000   1.0000   1.0000   1.0000   1.0000
     1.0000   1.0000   1.0000   1.0000   1.0000   1.0000   1.0000   1.0000
     1.0000   1.0000   1.0000   1.0000   1.0000   1.0000   1.0000   1.0000
     1.0000   1.0000   1.0000   1.0000   1.0000   1.0000   1.0000   1.0000
     1.0000   1.0000   1.0000   1.0000   1.0000   1.0000   1.0000   1.0000
     1.0000   1.0000   1.0000   1.0000   1.0000   1.0000   1.0000   1.0000
     1.0000   1.0000   1.0000   1.0000   1.0000   1.0000   1.0000   1.0000
     1.0000   1.0000   1.0000   1.0000   1.0000   1.0000   1.0000   1.0000
     1.0000   1.0000   1.0000   1.0000   1.0000   1.0000   1.0000   1.0000
     1.0000   1.0000   1.0000   1.0000   1.0000   1.0000   1.0000   1.0000
     1.0000   1.0000   1.0000   1.0000   1.0000   1.0000   1.0000   1.0000
     1.0000   1.0000   1.0001   1.0001   1.0002   1.0002   1.0004   1.0005
     1.0008   1.0011   1.0021   1.0032   1.0039   1.0057   1.0065   1.0089
     1.0156   1.0187   1.0229   1.0350   1.0381   1.0472   1.0562   1.0727
     1.0794   1.0819   1.0767   1.0695   1.0514   1.0071   0.9705   0.8771
     0.7236   0.5877   0.5486   0.4429   0.2593   0.2182   0.1566   0.1206
     0.0713   0.0261   0.0204   0.0141   0.0079   0.0053   0.0031   0.0020
     0.0018   0.0008   0.0005   0.0004   0.0001   0.0001   0.0000   0.0000
     0.0000   0.0000   0.0000   0.0000   0.0000   0.0000

          k = 0.0000 0.3333 0.3333 ( 40312 PWs)   bands (ev):

    -6.1085  -5.5453  -5.3797  -5.1254  -5.0257  -4.8533  -4.6707  -4.5403
    -4.4307  -4.2908  -4.1423  -4.0474  -3.9793  -3.8325  -3.7254  -3.6327
    -3.4528  -3.3455  -3.1770  -3.0923  -2.9978  -2.8908  -2.7996  -2.7352
    -2.5890  -2.4931  -2.3939  -2.2512  -2.1755  -1.9822  -1.9237  -1.7457
    -1.7073  -1.5617  -1.5232  -1.3988  -1.3437  -1.2607  -1.1129  -1.0518
    -0.8475  -0.6971  -0.6154  -0.4766  -0.3775  -0.2517  -0.0569   0.0422
     0.1139   0.1960   0.2852   0.3683   0.4789   0.6610   0.7297   0.8179
     0.9053   1.0253   1.1530   1.2775   1.3853   1.4895   1.5638   1.5990
     1.7344   1.8779   1.9579   2.0156   2.0820   2.1396   2.1779   2.2665
     2.3375   2.3927   2.4759   2.5557   2.6044   2.6742   2.7316   2.7791
     2.8323   2.9061   2.9934   3.0710   3.1157   3.2179   3.2332   3.3030
     3.3512   3.3613   3.4556   3.5262   3.5961   3.6423   3.6814   3.7609
     3.8400   3.9041   3.9156   4.0128   4.0234   4.1066   4.1561   4.1932
     4.2265   4.3532   4.3813   4.4019   4.4393   4.5214   4.6229   4.7120
     4.7601   4.7899   4.8666   4.9436   5.0079   5.0957   5.1284   5.1685
     5.2561   5.3456   5.4372   5.4718   5.6277   5.6829   5.7774   5.8632
     6.0063   6.0879   6.2400   6.4331   6.5053   6.5876   6.7691   6.8771
     6.9410   7.0045   7.1940   7.2477   7.3496   7.4629   7.5057   7.5446
     7.5820   7.6651   7.7080   7.8226   7.8846   7.9506   7.9650   8.0014
     8.1285   8.1903   8.2901   8.3171   8.3852   8.4314

     occupation numbers 
     1.0000   1.0000   1.0000   1.0000   1.0000   1.0000   1.0000   1.0000
     1.0000   1.0000   1.0000   1.0000   1.0000   1.0000   1.0000   1.0000
     1.0000   1.0000   1.0000   1.0000   1.0000   1.0000   1.0000   1.0000
     1.0000   1.0000   1.0000   1.0000   1.0000   1.0000   1.0000   1.0000
     1.0000   1.0000   1.0000   1.0000   1.0000   1.0000   1.0000   1.0000
     1.0000   1.0000   1.0000   1.0000   1.0000   1.0000   1.0000   1.0000
     1.0000   1.0000   1.0000   1.0000   1.0000   1.0000   1.0000   1.0000
     1.0000   1.0000   1.0000   1.0000   1.0000   1.0000   1.0000   1.0000
     1.0000   1.0000   1.0000   1.0000   1.0000   1.0000   1.0000   1.0000
     1.0000   1.0000   1.0000   1.0000   1.0000   1.0000   1.0000   1.0000
     1.0000   1.0000   1.0000   1.0000   1.0000   1.0000   1.0000   1.0000
     1.0000   1.0000   1.0000   1.0000   1.0000   1.0000   1.0000   1.0000
     1.0000   1.0000   1.0001   1.0001   1.0001   1.0002   1.0004   1.0005
     1.0006   1.0014   1.0017   1.0019   1.0024   1.0040   1.0070   1.0110
     1.0138   1.0158   1.0219   1.0296   1.0370   1.0485   1.0530   1.0585
     1.0700   1.0793   1.0833   1.0828   1.0602   1.0426   0.9989   0.9438
     0.8223   0.7398   0.5737   0.3697   0.3029   0.2356   0.1232   0.0787
     0.0591   0.0437   0.0161   0.0118   0.0063   0.0030   0.0022   0.0017
     0.0013   0.0007   0.0005   0.0002   0.0001   0.0001   0.0001   0.0000
     0.0000   0.0000   0.0000   0.0000   0.0000   0.0000

          k = 0.3333 0.3333 0.3333 ( 40314 PWs)   bands (ev):

    -6.0147  -5.5654  -5.4307  -5.2940  -5.0398  -4.9481  -4.8574  -4.5609
    -4.1905  -4.1250  -4.0109  -3.9261  -3.8883  -3.7108  -3.6627  -3.6022
    -3.5206  -3.3236  -3.1697  -3.0934  -3.0306  -2.9006  -2.8690  -2.7035
    -2.6175  -2.5410  -2.4720  -2.4279  -2.2877  -2.1400  -1.9927  -1.9100
    -1.7663  -1.6605  -1.5324  -1.3528  -1.3035  -1.2289  -1.0779  -0.9159
    -0.8011  -0.6285  -0.5811  -0.4005  -0.3178  -0.2205  -0.1073   0.0357
     0.0873   0.1660   0.3066   0.3801   0.5166   0.6102   0.6717   0.8949
     0.9585   1.0588   1.1919   1.3065   1.4226   1.4967   1.6242   1.6749
     1.7611   1.8840   1.9927   2.0132   2.0854   2.1841   2.2148   2.2773
     2.3365   2.3856   2.4887   2.5224   2.6725   2.7097   2.7445   2.7819
     2.9260   2.9930   3.0414   3.0765   3.1528   3.1920   3.2201   3.3317
     3.3681   3.3977   3.4398   3.4889   3.5594   3.6017   3.6656   3.7215
     3.7740   3.8110   3.8866   3.9805   3.9974   4.0698   4.1250   4.1572
     4.2177   4.2423   4.2827   4.3425   4.4460   4.4972   4.5619   4.6006
     4.6584   4.7513   4.7917   4.8529   4.9103   4.9198   5.1166   5.2075
     5.2725   5.3516   5.4276   5.4907   5.5736   5.7013   5.8182   5.9129
     5.9804   6.0620   6.3072   6.3752   6.5811   6.6694   6.7683   6.8770
     6.9432   7.0070   7.1316   7.2584   7.3368   7.3701   7.4505   7.5777
     7.6406   7.6931   7.7290   7.8356   7.8745   7.9656   8.0306   8.0901
     8.1165   8.2011   8.2330   8.3099   8.3983   8.4515

     occupation numbers 
     1.0000   1.0000   1.0000   1.0000   1.0000   1.0000   1.0000   1.0000
     1.0000   1.0000   1.0000   1.0000   1.0000   1.0000   1.0000   1.0000
     1.0000   1.0000   1.0000   1.0000   1.0000   1.0000   1.0000   1.0000
     1.0000   1.0000   1.0000   1.0000   1.0000   1.0000   1.0000   1.0000
     1.0000   1.0000   1.0000   1.0000   1.0000   1.0000   1.0000   1.0000
     1.0000   1.0000   1.0000   1.0000   1.0000   1.0000   1.0000   1.0000
     1.0000   1.0000   1.0000   1.0000   1.0000   1.0000   1.0000   1.0000
     1.0000   1.0000   1.0000   1.0000   1.0000   1.0000   1.0000   1.0000
     1.0000   1.0000   1.0000   1.0000   1.0000   1.0000   1.0000   1.0000
     1.0000   1.0000   1.0000   1.0000   1.0000   1.0000   1.0000   1.0000
     1.0000   1.0000   1.0000   1.0000   1.0000   1.0000   1.0000   1.0000
     1.0000   1.0000   1.0000   1.0000   1.0000   1.0000   1.0000   1.0000
     1.0000   1.0000   1.0000   1.0001   1.0001   1.0002   1.0003   1.0004
     1.0006   1.0007   1.0009   1.0013   1.0025   1.0035   1.0050   1.0062
     1.0084   1.0132   1.0159   1.0207   1.0261   1.0270   1.0513   1.0638
     1.0720   1.0797   1.0832   1.0819   1.0723   1.0355   0.9744   0.9055
     0.8467   0.7667   0.5000   0.4279   0.2405   0.1788   0.1236   0.0788
     0.0585   0.0432   0.0227   0.0111   0.0069   0.0056   0.0033   0.0013
     0.0008   0.0006   0.0004   0.0002   0.0001   0.0001   0.0000   0.0000
     0.0000   0.0000   0.0000   0.0000   0.0000   0.0000

          k = 0.3333 0.0000 0.0000 ( 40358 PWs)   bands (ev):

    -6.1348  -5.7046  -5.1392  -5.0340  -4.8712  -4.7737  -4.6670  -4.5846
    -4.5272  -4.4178  -4.2168  -4.1259  -3.9545  -3.8135  -3.7676  -3.6476
    -3.5073  -3.3759  -3.3269  -3.2553  -3.0986  -2.9388  -2.8211  -2.6543
    -2.4840  -2.3796  -2.2607  -2.1887  -2.1022  -2.0253  -1.8843  -1.7271
    -1.6437  -1.6020  -1.4832  -1.3381  -1.2008  -1.1044  -1.0064  -0.8976
    -0.7734  -0.6708  -0.5502  -0.5073  -0.4126  -0.2618  -0.1592  -0.0295
     0.0524   0.1369   0.2057   0.3198   0.4650   0.5308   0.5901   0.7074
     0.8469   1.0019   1.0705   1.2110   1.3306   1.4742   1.5763   1.6084
     1.6635   1.7675   1.8262   1.9013   2.0021   2.1364   2.2040   2.2790
     2.3461   2.3959   2.4674   2.5238   2.5806   2.6896   2.7445   2.8177
     2.9030   2.9480   3.0390   3.1171   3.1655   3.1976   3.2779   3.3424
     3.4363   3.4535   3.5325   3.5747   3.6175   3.6547   3.7315   3.7750
     3.8573   3.9006   3.9443   3.9664   4.0344   4.0950   4.1631   4.2496
     4.2914   4.3241   4.4042   4.4617   4.5201   4.5755   4.6630   4.6817
     4.7248   4.7864   4.8927   4.9153   5.0066   5.1423   5.1900   5.2762
     5.3277   5.4065   5.5021   5.5772   5.6941   5.8292   5.8552   5.9517
     6.0456   6.0782   6.1403   6.2399   6.4504   6.5224   6.6644   6.8406
     6.9090   7.0369   7.0850   7.2159   7.3841   7.4327   7.5025   7.5450
     7.6356   7.6948   7.7356   7.7843   7.8502   7.9135   7.9810   8.0157
     8.0871   8.1365   8.1823   8.2696   8.3342   8.3812

     occupation numbers 
     1.0000   1.0000   1.0000   1.0000   1.0000   1.0000   1.0000   1.0000
     1.0000   1.0000   1.0000   1.0000   1.0000   1.0000   1.0000   1.0000
     1.0000   1.0000   1.0000   1.0000   1.0000   1.0000   1.0000   1.0000
     1.0000   1.0000   1.0000   1.0000   1.0000   1.0000   1.0000   1.0000
     1.0000   1.0000   1.0000   1.0000   1.0000   1.0000   1.0000   1.0000
     1.0000   1.0000   1.0000   1.0000   1.0000   1.0000   1.0000   1.0000
     1.0000   1.0000   1.0000   1.0000   1.0000   1.0000   1.0000   1.0000
     1.0000   1.0000   1.0000   1.0000   1.0000   1.0000   1.0000   1.0000
     1.0000   1.0000   1.0000   1.0000   1.0000   1.0000   1.0000   1.0000
     1.0000   1.0000   1.0000   1.0000   1.0000   1.0000   1.0000   1.0000
     1.0000   1.0000   1.0000   1.0000   1.0000   1.0000   1.0000   1.0000
     1.0000   1.0000   1.0000   1.0000   1.0000   1.0000   1.0000   1.0000
     1.0000   1.0000   1.0001   1.0001   1.0001   1.0002   1.0004   1.0007
     1.0009   1.0012   1.0020   1.0028   1.0040   1.0054   1.0086   1.0095
     1.0117   1.0155   1.0243   1.0266   1.0369   1.0549   1.0615   1.0724
     1.0778   1.0828   1.0811   1.0716   1.0383   0.9673   0.9496   0.8726
     0.7835   0.7500   0.6837   0.5738   0.3532   0.2881   0.1819   0.0921
     0.0684   0.0372   0.0291   0.0142   0.0051   0.0037   0.0023   0.0017
     0.0009   0.0006   0.0004   0.0003   0.0002   0.0001   0.0001   0.0000
     0.0000   0.0000   0.0000   0.0000   0.0000   0.0000

          k = 0.0000 0.3333 0.0000 ( 40358 PWs)   bands (ev):

    -6.1773  -5.5123  -5.2363  -5.0948  -4.9492  -4.8880  -4.6461  -4.5772
    -4.3762  -4.3332  -4.1999  -4.1198  -3.9564  -3.8787  -3.7659  -3.6995
    -3.5651  -3.3858  -3.3029  -3.1800  -3.1332  -2.9477  -2.7162  -2.6709
    -2.5811  -2.3629  -2.3144  -2.2200  -2.0673  -1.9576  -1.8023  -1.7243
    -1.5876  -1.5477  -1.3862  -1.2524  -1.1831  -1.1465  -1.0542  -0.9851
    -0.8557  -0.7735  -0.6402  -0.4819  -0.3763  -0.3603  -0.1983  -0.0863
    -0.0022   0.0963   0.2276   0.3065   0.5075   0.5424   0.6940   0.7356
     0.8837   0.9995   1.0559   1.2375   1.3235   1.3680   1.5125   1.5838
     1.7395   1.7533   1.9061   2.0011   2.0472   2.1038   2.1620   2.3141
     2.3690   2.4850   2.4992   2.5749   2.6561   2.6998   2.7764   2.8403
     2.9372   2.9668   3.0317   3.1123   3.1462   3.2251   3.2869   3.3592
     3.4166   3.4502   3.5128   3.5577   3.5876   3.6810   3.7032   3.7780
     3.8276   3.8514   3.9011   3.9520   4.0178   4.1100   4.1538   4.2001
     4.2530   4.3025   4.3532   4.3862   4.4341   4.5680   4.6345   4.6896
     4.7954   4.8336   4.9032   4.9581   5.0128   5.0959   5.1890   5.2257
     5.2852   5.3564   5.5087   5.5519   5.6706   5.7332   5.8583   5.9513
     6.0128   6.0625   6.2642   6.2875   6.5228   6.6942   6.7405   6.8332
     6.9371   7.0515   7.1329   7.1708   7.3117   7.3697   7.4483   7.5385
     7.5951   7.6915   7.7257   7.7702   7.8279   7.8720   7.9496   8.0139
     8.0776   8.1490   8.2211   8.2850   8.3699   8.4032

     occupation numbers 
     1.0000   1.0000   1.0000   1.0000   1.0000   1.0000   1.0000   1.0000
     1.0000   1.0000   1.0000   1.0000   1.0000   1.0000   1.0000   1.0000
     1.0000   1.0000   1.0000   1.0000   1.0000   1.0000   1.0000   1.0000
     1.0000   1.0000   1.0000   1.0000   1.0000   1.0000   1.0000   1.0000
     1.0000   1.0000   1.0000   1.0000   1.0000   1.0000   1.0000   1.0000
     1.0000   1.0000   1.0000   1.0000   1.0000   1.0000   1.0000   1.0000
     1.0000   1.0000   1.0000   1.0000   1.0000   1.0000   1.0000   1.0000
     1.0000   1.0000   1.0000   1.0000   1.0000   1.0000   1.0000   1.0000
     1.0000   1.0000   1.0000   1.0000   1.0000   1.0000   1.0000   1.0000
     1.0000   1.0000   1.0000   1.0000   1.0000   1.0000   1.0000   1.0000
     1.0000   1.0000   1.0000   1.0000   1.0000   1.0000   1.0000   1.0000
     1.0000   1.0000   1.0000   1.0000   1.0000   1.0000   1.0000   1.0000
     1.0000   1.0000   1.0000   1.0001   1.0001   1.0003   1.0003   1.0005
     1.0007   1.0010   1.0014   1.0017   1.0024   1.0052   1.0074   1.0098
     1.0162   1.0191   1.0254   1.0312   1.0376   1.0485   1.0613   1.0662
     1.0734   1.0801   1.0806   1.0757   1.0470   1.0215   0.9473   0.8729
     0.8159   0.7662   0.5469   0.5214   0.2878   0.1635   0.1376   0.0950
     0.0602   0.0346   0.0226   0.0183   0.0080   0.0056   0.0033   0.0018
     0.0012   0.0006   0.0004   0.0003   0.0002   0.0001   0.0001   0.0000
     0.0000   0.0000   0.0000   0.0000   0.0000   0.0000

          k = 0.0000-0.3333 0.3333 ( 40312 PWs)   bands (ev):

    -6.1069  -5.5700  -5.3520  -5.0906  -5.0442  -4.8912  -4.6486  -4.5390
    -4.4471  -4.2462  -4.1508  -4.0756  -3.9969  -3.8170  -3.7945  -3.5802
    -3.4109  -3.3011  -3.1997  -3.1719  -2.9929  -2.8937  -2.7612  -2.6657
    -2.6103  -2.4870  -2.4383  -2.2401  -2.1241  -2.0501  -1.9152  -1.7955
    -1.7527  -1.5809  -1.5109  -1.4510  -1.2978  -1.1644  -1.0867  -0.9941
    -0.9404  -0.7090  -0.5749  -0.4628  -0.2974  -0.2779  -0.1591  -0.0557
     0.0742   0.2679   0.3507   0.4688   0.5110   0.6402   0.7467   0.8088
     0.9024   0.9408   1.1324   1.2709   1.3629   1.4478   1.4943   1.6767
     1.7636   1.8717   1.9308   1.9589   2.0049   2.1463   2.2127   2.2582
     2.3474   2.4330   2.4911   2.5766   2.6495   2.6911   2.7487   2.8364
     2.8925   2.9604   2.9900   3.0747   3.1183   3.1937   3.2438   3.3332
     3.3747   3.4124   3.4970   3.5352   3.5804   3.6443   3.6860   3.6986
     3.7865   3.8370   3.8911   3.9272   3.9959   4.0418   4.0848   4.2064
     4.2439   4.2991   4.3783   4.4076   4.4818   4.5287   4.6223   4.6568
     4.7132   4.7773   4.8337   4.9546   5.0013   5.0729   5.1255   5.1795
     5.2786   5.4019   5.5119   5.5866   5.6759   5.7121   5.8127   5.8942
     6.0443   6.0772   6.2257   6.3771   6.5722   6.6641   6.7657   6.8253
     6.9758   7.0415   7.1388   7.2257   7.3297   7.4151   7.4751   7.5292
     7.5491   7.6163   7.6475   7.7711   7.8524   7.9122   7.9380   8.0258
     8.0985   8.1632   8.2424   8.3192   8.3869   8.4425

     occupation numbers 
     1.0000   1.0000   1.0000   1.0000   1.0000   1.0000   1.0000   1.0000
     1.0000   1.0000   1.0000   1.0000   1.0000   1.0000   1.0000   1.0000
     1.0000   1.0000   1.0000   1.0000   1.0000   1.0000   1.0000   1.0000
     1.0000   1.0000   1.0000   1.0000   1.0000   1.0000   1.0000   1.0000
     1.0000   1.0000   1.0000   1.0000   1.0000   1.0000   1.0000   1.0000
     1.0000   1.0000   1.0000   1.0000   1.0000   1.0000   1.0000   1.0000
     1.0000   1.0000   1.0000   1.0000   1.0000   1.0000   1.0000   1.0000
     1.0000   1.0000   1.0000   1.0000   1.0000   1.0000   1.0000   1.0000
     1.0000   1.0000   1.0000   1.0000   1.0000   1.0000   1.0000   1.0000
     1.0000   1.0000   1.0000   1.0000   1.0000   1.0000   1.0000   1.0000
     1.0000   1.0000   1.0000   1.0000   1.0000   1.0000   1.0000   1.0000
     1.0000   1.0000   1.0000   1.0000   1.0000   1.0000   1.0000   1.0000
     1.0000   1.0000   1.0000   1.0001   1.0001   1.0001   1.0002   1.0005
     1.0007   1.0010   1.0017   1.0020   1.0032   1.0042   1.0070   1.0083
     1.0110   1.0149   1.0191   1.0308   1.0362   1.0454   1.0526   1.0600
     1.0727   1.0826   1.0803   1.0698   1.0451   1.0309   0.9780   0.9204
     0.7848   0.7510   0.5895   0.4259   0.2474   0.1821   0.1249   0.0982
     0.0502   0.0364   0.0219   0.0134   0.0072   0.0042   0.0028   0.0019
     0.0017   0.0010   0.0008   0.0003   0.0002   0.0001   0.0001   0.0000
     0.0000   0.0000   0.0000   0.0000   0.0000   0.0000

          k = 0.3333 0.0000-0.3333 ( 40312 PWs)   bands (ev):

    -6.0644  -5.6491  -5.4376  -5.1876  -4.9058  -4.7172  -4.5366  -4.5096
    -4.3955  -4.3355  -4.3065  -4.1297  -3.9931  -3.8570  -3.7496  -3.6549
    -3.3726  -3.2670  -3.1823  -3.1147  -3.0272  -2.9104  -2.8047  -2.6779
    -2.5602  -2.4993  -2.4710  -2.2530  -2.1338  -2.0522  -1.9159  -1.7840
    -1.7659  -1.6366  -1.5381  -1.4147  -1.2692  -1.1615  -1.0987  -0.9646
    -0.8604  -0.7184  -0.6397  -0.5115  -0.2748  -0.1090  -0.0436   0.0324
     0.1066   0.2221   0.2996   0.3968   0.5173   0.5808   0.6794   0.7689
     0.8616   1.0267   1.1467   1.2562   1.3603   1.4432   1.5575   1.5938
     1.7257   1.8146   1.8600   2.0062   2.0639   2.1674   2.2269   2.2794
     2.3219   2.4262   2.4992   2.5880   2.6175   2.6744   2.7797   2.8230
     2.8631   2.8929   2.9477   3.0862   3.1465   3.1830   3.2721   3.2982
     3.3740   3.4142   3.4827   3.5624   3.5731   3.6417   3.6737   3.7628
     3.8066   3.8755   3.9146   3.9761   4.0034   4.0790   4.1256   4.1940
     4.2400   4.2732   4.3386   4.3665   4.4749   4.5529   4.5746   4.6253
     4.6820   4.7580   4.8619   4.8922   4.9812   5.0723   5.1593   5.2132
     5.3346   5.3740   5.4656   5.5749   5.6394   5.7462   5.8648   5.8919
     6.0095   6.1275   6.2628   6.4360   6.5419   6.6064   6.7017   6.8252
     6.9920   7.0648   7.1946   7.2784   7.3828   7.4444   7.5083   7.5808
     7.6320   7.7142   7.7730   7.7949   7.9222   7.9762   8.0304   8.0758
     8.1338   8.1743   8.2256   8.2612   8.3507   8.3943

     occupation numbers 
     1.0000   1.0000   1.0000   1.0000   1.0000   1.0000   1.0000   1.0000
     1.0000   1.0000   1.0000   1.0000   1.0000   1.0000   1.0000   1.0000
     1.0000   1.0000   1.0000   1.0000   1.0000   1.0000   1.0000   1.0000
     1.0000   1.0000   1.0000   1.0000   1.0000   1.0000   1.0000   1.0000
     1.0000   1.0000   1.0000   1.0000   1.0000   1.0000   1.0000   1.0000
     1.0000   1.0000   1.0000   1.0000   1.0000   1.0000   1.0000   1.0000
     1.0000   1.0000   1.0000   1.0000   1.0000   1.0000   1.0000   1.0000
     1.0000   1.0000   1.0000   1.0000   1.0000   1.0000   1.0000   1.0000
     1.0000   1.0000   1.0000   1.0000   1.0000   1.0000   1.0000   1.0000
     1.0000   1.0000   1.0000   1.0000   1.0000   1.0000   1.0000   1.0000
     1.0000   1.0000   1.0000   1.0000   1.0000   1.0000   1.0000   1.0000
     1.0000   1.0000   1.0000   1.0000   1.0000   1.0000   1.0000   1.0000
     1.0000   1.0000   1.0001   1.0001   1.0001   1.0002   1.0003   1.0005
     1.0007   1.0008   1.0013   1.0015   1.0030   1.0048   1.0054   1.0071
     1.0095   1.0137   1.0215   1.0243   1.0338   1.0453   1.0572   1.0646
     1.0784   1.0813   1.0830   1.0720   1.0569   1.0152   0.9426   0.9223
     0.8191   0.6976   0.5485   0.3670   0.2717   0.2216   0.1591   0.0982
     0.0464   0.0323   0.0160   0.0098   0.0051   0.0034   0.0022   0.0013
     0.0009   0.0005   0.0003   0.0003   0.0001   0.0001   0.0000   0.0000
     0.0000   0.0000   0.0000   0.0000   0.0000   0.0000

          k =-0.3333 0.0000-0.3333 ( 40312 PWs)   bands (ev):

    -6.0639  -5.6157  -5.5141  -5.1339  -4.9023  -4.7062  -4.5395  -4.4771
    -4.4481  -4.3129  -4.2563  -4.1489  -4.0319  -3.9867  -3.8014  -3.5422
    -3.3971  -3.2252  -3.1390  -3.0550  -2.9963  -2.8565  -2.7959  -2.7098
    -2.6203  -2.4818  -2.4618  -2.3016  -2.2016  -2.1129  -1.9655  -1.8340
    -1.7181  -1.6534  -1.4896  -1.3279  -1.1992  -1.1682  -1.1234  -1.0030
    -0.7904  -0.6982  -0.5926  -0.4490  -0.3758  -0.1801  -0.1584   0.0220
     0.1163   0.1928   0.3641   0.4001   0.4878   0.6475   0.6904   0.8038
     0.8514   1.0271   1.1385   1.2822   1.3676   1.4407   1.5372   1.6182
     1.7331   1.7993   1.9128   1.9972   2.0818   2.1262   2.1932   2.2681
     2.3456   2.4369   2.4794   2.5534   2.5835   2.6507   2.7936   2.8267
     2.8678   2.9674   3.0478   3.1083   3.1331   3.1602   3.2576   3.2770
     3.3142   3.3799   3.4754   3.5493   3.5804   3.6416   3.6799   3.7155
     3.7692   3.8369   3.9292   3.9467   4.0051   4.0938   4.1292   4.1619
     4.2289   4.2953   4.3114   4.4478   4.4967   4.5071   4.6028   4.6635
     4.7438   4.7822   4.8018   4.9337   5.0123   5.0920   5.1912   5.2529
     5.3541   5.4025   5.4316   5.5148   5.6500   5.7732   5.8205   5.8855
     6.0526   6.1023   6.2278   6.3399   6.5421   6.6521   6.7605   6.8691
     6.9777   7.0752   7.1743   7.2820   7.3123   7.4626   7.5281   7.5632
     7.6536   7.7021   7.7945   7.8630   7.9268   7.9609   7.9889   8.0303
     8.1201   8.1546   8.1892   8.2508   8.3045   8.3785

     occupation numbers 
     1.0000   1.0000   1.0000   1.0000   1.0000   1.0000   1.0000   1.0000
     1.0000   1.0000   1.0000   1.0000   1.0000   1.0000   1.0000   1.0000
     1.0000   1.0000   1.0000   1.0000   1.0000   1.0000   1.0000   1.0000
     1.0000   1.0000   1.0000   1.0000   1.0000   1.0000   1.0000   1.0000
     1.0000   1.0000   1.0000   1.0000   1.0000   1.0000   1.0000   1.0000
     1.0000   1.0000   1.0000   1.0000   1.0000   1.0000   1.0000   1.0000
     1.0000   1.0000   1.0000   1.0000   1.0000   1.0000   1.0000   1.0000
     1.0000   1.0000   1.0000   1.0000   1.0000   1.0000   1.0000   1.0000
     1.0000   1.0000   1.0000   1.0000   1.0000   1.0000   1.0000   1.0000
     1.0000   1.0000   1.0000   1.0000   1.0000   1.0000   1.0000   1.0000
     1.0000   1.0000   1.0000   1.0000   1.0000   1.0000   1.0000   1.0000
     1.0000   1.0000   1.0000   1.0000   1.0000   1.0000   1.0000   1.0000
     1.0000   1.0000   1.0001   1.0001   1.0001   1.0002   1.0003   1.0004
     1.0006   1.0010   1.0011   1.0026   1.0034   1.0037   1.0063   1.0086
     1.0128   1.0153   1.0167   1.0285   1.0376   1.0480   1.0616   1.0697
     1.0799   1.0826   1.0833   1.0801   1.0538   1.0011   0.9730   0.9271
     0.7764   0.7246   0.5872   0.4649   0.2715   0.1899   0.1274   0.0815
     0.0497   0.0306   0.0180   0.0096   0.0080   0.0030   0.0019   0.0015
     0.0008   0.0005   0.0003   0.0001   0.0001   0.0001   0.0000   0.0000
     0.0000   0.0000   0.0000   0.0000   0.0000   0.0000

          k = 0.3333-0.3333 0.0000 ( 40312 PWs)   bands (ev):

    -6.0791  -5.6488  -5.4133  -5.0479  -4.9329  -4.8485  -4.6570  -4.5043
    -4.4011  -4.3113  -4.2069  -4.1184  -4.0411  -3.8226  -3.7700  -3.6576
    -3.3404  -3.3095  -3.1268  -3.0679  -3.0021  -2.9666  -2.8237  -2.7343
    -2.6344  -2.4285  -2.3613  -2.2532  -2.1691  -2.0501  -1.9553  -1.8615
    -1.6780  -1.6352  -1.4979  -1.3391  -1.2617  -1.1614  -1.1023  -0.9078
    -0.8202  -0.7678  -0.5808  -0.4780  -0.3580  -0.2771  -0.1191  -0.0489
    -0.0122   0.1452   0.2659   0.4297   0.5116   0.6084   0.7865   0.8509
     0.9221   0.9978   1.1447   1.2068   1.3428   1.4719   1.5740   1.6177
     1.7358   1.8125   1.8968   2.0368   2.1205   2.1896   2.2652   2.3041
     2.4170   2.4371   2.5213   2.5618   2.6223   2.6738   2.7401   2.8223
     2.8551   2.9115   2.9905   3.0600   3.1222   3.2117   3.2907   3.3337
     3.3540   3.4280   3.4598   3.5164   3.5756   3.6385   3.6695   3.7276
     3.7853   3.8677   3.9272   3.9629   3.9741   4.0516   4.1087   4.1687
     4.2085   4.2711   4.3334   4.3812   4.4513   4.4966   4.5671   4.6143
     4.6966   4.8121   4.8827   4.9205   4.9669   5.0175   5.1718   5.2308
     5.3070   5.4072   5.5187   5.5890   5.6373   5.8122   5.8882   5.9495
     5.9982   6.0927   6.1964   6.2373   6.4494   6.6409   6.7050   6.8585
     6.9674   6.9816   7.2214   7.2837   7.3452   7.4359   7.4906   7.5483
     7.6568   7.7024   7.7381   7.8053   7.8650   7.9423   8.0231   8.0930
     8.1270   8.1896   8.2160   8.3146   8.3940   8.4451

     occupation numbers 
     1.0000   1.0000   1.0000   1.0000   1.0000   1.0000   1.0000   1.0000
     1.0000   1.0000   1.0000   1.0000   1.0000   1.0000   1.0000   1.0000
     1.0000   1.0000   1.0000   1.0000   1.0000   1.0000   1.0000   1.0000
     1.0000   1.0000   1.0000   1.0000   1.0000   1.0000   1.0000   1.0000
     1.0000   1.0000   1.0000   1.0000   1.0000   1.0000   1.0000   1.0000
     1.0000   1.0000   1.0000   1.0000   1.0000   1.0000   1.0000   1.0000
     1.0000   1.0000   1.0000   1.0000   1.0000   1.0000   1.0000   1.0000
     1.0000   1.0000   1.0000   1.0000   1.0000   1.0000   1.0000   1.0000
     1.0000   1.0000   1.0000   1.0000   1.0000   1.0000   1.0000   1.0000
     1.0000   1.0000   1.0000   1.0000   1.0000   1.0000   1.0000   1.0000
     1.0000   1.0000   1.0000   1.0000   1.0000   1.0000   1.0000   1.0000
     1.0000   1.0000   1.0000   1.0000   1.0000   1.0000   1.0000   1.0000
     1.0000   1.0000   1.0001   1.0001   1.0001   1.0002   1.0002   1.0004
     1.0005   1.0008   1.0012   1.0017   1.0026   1.0034   1.0052   1.0067
     1.0102   1.0174   1.0234   1.0271   1.0322   1.0382   1.0590   1.0669
     1.0758   1.0828   1.0797   1.0693   1.0575   0.9783   0.9251   0.8745
     0.8300   0.7347   0.6220   0.5766   0.3541   0.1973   0.1572   0.0853
     0.0522   0.0488   0.0138   0.0095   0.0065   0.0036   0.0025   0.0017
     0.0007   0.0005   0.0004   0.0002   0.0001   0.0001   0.0000   0.0000
     0.0000   0.0000   0.0000   0.0000   0.0000   0.0000

          k =-0.3333-0.3333 0.0000 ( 40312 PWs)   bands (ev):

    -6.0788  -5.6465  -5.4197  -5.0437  -4.9573  -4.8080  -4.6739  -4.5252
    -4.3888  -4.2744  -4.2269  -4.0828  -4.0399  -3.8679  -3.7644  -3.6259
    -3.4628  -3.2743  -3.1630  -3.0633  -2.9955  -2.9423  -2.8105  -2.7463
    -2.5669  -2.4921  -2.2564  -2.2020  -2.1791  -2.0535  -1.9448  -1.8584
    -1.7029  -1.6440  -1.5008  -1.4031  -1.3293  -1.1678  -1.0473  -0.9843
    -0.8262  -0.7328  -0.5711  -0.5078  -0.3824  -0.2477  -0.1784  -0.0184
     0.0501   0.1963   0.2757   0.3550   0.5861   0.6665   0.7328   0.8058
     0.8397   1.0939   1.1708   1.2560   1.4187   1.5357   1.5835   1.6513
     1.7407   1.8170   1.8931   2.0440   2.0912   2.1524   2.2236   2.2759
     2.3222   2.3952   2.4469   2.4822   2.5873   2.6196   2.6803   2.8061
     2.9069   2.9435   2.9773   3.0890   3.1439   3.1650   3.2227   3.3251
     3.3753   3.4582   3.4872   3.5241   3.6130   3.6349   3.6774   3.7844
     3.8060   3.8700   3.9082   3.9769   4.0477   4.1203   4.1370   4.1858
     4.2878   4.3179   4.3383   4.3969   4.4884   4.5158   4.5552   4.6495
     4.7000   4.8023   4.8397   4.9003   5.0053   5.0420   5.1132   5.1913
     5.2762   5.4015   5.4648   5.5020   5.6332   5.7155   5.8246   5.8839
     6.0370   6.1636   6.2115   6.3654   6.4434   6.5561   6.6935   6.8802
     6.9726   7.0616   7.1699   7.2713   7.3913   7.4521   7.5013   7.5629
     7.6210   7.6953   7.7249   7.8248   7.8896   7.9244   7.9875   8.1203
     8.1408   8.1908   8.2245   8.2849   8.3760   8.4280

     occupation numbers 
     1.0000   1.0000   1.0000   1.0000   1.0000   1.0000   1.0000   1.0000
     1.0000   1.0000   1.0000   1.0000   1.0000   1.0000   1.0000   1.0000
     1.0000   1.0000   1.0000   1.0000   1.0000   1.0000   1.0000   1.0000
     1.0000   1.0000   1.0000   1.0000   1.0000   1.0000   1.0000   1.0000
     1.0000   1.0000   1.0000   1.0000   1.0000   1.0000   1.0000   1.0000
     1.0000   1.0000   1.0000   1.0000   1.0000   1.0000   1.0000   1.0000
     1.0000   1.0000   1.0000   1.0000   1.0000   1.0000   1.0000   1.0000
     1.0000   1.0000   1.0000   1.0000   1.0000   1.0000   1.0000   1.0000
     1.0000   1.0000   1.0000   1.0000   1.0000   1.0000   1.0000   1.0000
     1.0000   1.0000   1.0000   1.0000   1.0000   1.0000   1.0000   1.0000
     1.0000   1.0000   1.0000   1.0000   1.0000   1.0000   1.0000   1.0000
     1.0000   1.0000   1.0000   1.0000   1.0000   1.0000   1.0000   1.0000
     1.0000   1.0000   1.0000   1.0001   1.0002   1.0003   1.0003   1.0004
     1.0009   1.0011   1.0013   1.0019   1.0033   1.0039   1.0048   1.0080
     1.0104   1.0167   1.0196   1.0251   1.0367   1.0413   1.0509   1.0616
     1.0724   1.0826   1.0830   1.0811   1.0587   1.0295   0.9704   0.9284
     0.7921   0.6582   0.6053   0.4381   0.3598   0.2602   0.1639   0.0777
     0.0509   0.0328   0.0184   0.0103   0.0049   0.0032   0.0023   0.0015
     0.0010   0.0006   0.0004   0.0002   0.0001   0.0001   0.0000   0.0000
     0.0000   0.0000   0.0000   0.0000   0.0000   0.0000

          k =-0.3333-0.3333 0.3333 ( 40314 PWs)   bands (ev):

    -6.0132  -5.5951  -5.4066  -5.2402  -5.0955  -4.9365  -4.8522  -4.6009
    -4.2928  -4.0552  -3.9693  -3.8819  -3.7943  -3.7357  -3.6233  -3.6021
    -3.5573  -3.3375  -3.2578  -3.1391  -3.0653  -2.8731  -2.8437  -2.7399
    -2.7002  -2.5030  -2.4351  -2.3846  -2.2018  -2.1373  -2.0467  -1.8890
    -1.7051  -1.6330  -1.5781  -1.4500  -1.3372  -1.1759  -1.0501  -0.9741
    -0.7516  -0.6096  -0.5446  -0.4164  -0.3420  -0.2024  -0.1202  -0.0874
     0.0989   0.2056   0.2540   0.4470   0.5489   0.7058   0.7957   0.8759
     0.9525   0.9854   1.0943   1.2913   1.3966   1.4366   1.5714   1.6556
     1.7493   1.9006   1.9227   1.9784   2.0465   2.1214   2.2143   2.3184
     2.4353   2.5262   2.5558   2.5997   2.6980   2.7304   2.8223   2.8851
     2.8996   2.9359   2.9959   3.0776   3.1313   3.2049   3.2670   3.3013
     3.3437   3.3908   3.4362   3.5355   3.5635   3.6259   3.6991   3.7430
     3.7924   3.8151   3.8511   3.9135   3.9725   4.0189   4.0529   4.1225
     4.1431   4.2177   4.2632   4.3661   4.3888   4.4775   4.5378   4.5868
     4.6459   4.7036   4.7608   4.8772   4.9806   5.0469   5.1282   5.1862
     5.2116   5.3885   5.4793   5.5566   5.5912   5.7023   5.7757   5.8633
     5.9782   6.1086   6.2951   6.4097   6.5350   6.6049   6.7165   6.8826
     7.0027   7.0802   7.1513   7.2614   7.3474   7.4391   7.5255   7.5695
     7.6341   7.7125   7.7476   7.8090   7.8647   7.9290   7.9954   8.0693
     8.1310   8.2195   8.2505   8.2912   8.4131   8.4724

     occupation numbers 
     1.0000   1.0000   1.0000   1.0000   1.0000   1.0000   1.0000   1.0000
     1.0000   1.0000   1.0000   1.0000   1.0000   1.0000   1.0000   1.0000
     1.0000   1.0000   1.0000   1.0000   1.0000   1.0000   1.0000   1.0000
     1.0000   1.0000   1.0000   1.0000   1.0000   1.0000   1.0000   1.0000
     1.0000   1.0000   1.0000   1.0000   1.0000   1.0000   1.0000   1.0000
     1.0000   1.0000   1.0000   1.0000   1.0000   1.0000   1.0000   1.0000
     1.0000   1.0000   1.0000   1.0000   1.0000   1.0000   1.0000   1.0000
     1.0000   1.0000   1.0000   1.0000   1.0000   1.0000   1.0000   1.0000
     1.0000   1.0000   1.0000   1.0000   1.0000   1.0000   1.0000   1.0000
     1.0000   1.0000   1.0000   1.0000   1.0000   1.0000   1.0000   1.0000
     1.0000   1.0000   1.0000   1.0000   1.0000   1.0000   1.0000   1.0000
     1.0000   1.0000   1.0000   1.0000   1.0000   1.0000   1.0000   1.0000
     1.0000   1.0000   1.0000   1.0001   1.0001   1.0001   1.0002   1.0003
     1.0003   1.0006   1.0008   1.0015   1.0018   1.0031   1.0044   1.0058
     1.0079   1.0105   1.0138   1.0229   1.0337   1.0420   1.0529   1.0609
     1.0643   1.0820   1.0825   1.0751   1.0689   1.0350   0.9998   0.9438
     0.8487   0.7179   0.5131   0.3929   0.2774   0.2226   0.1507   0.0769
     0.0441   0.0298   0.0204   0.0109   0.0064   0.0035   0.0020   0.0014
     0.0009   0.0005   0.0004   0.0002   0.0001   0.0001   0.0000   0.0000
     0.0000   0.0000   0.0000   0.0000   0.0000   0.0000

          k =-0.3333 0.3333-0.3333 ( 40314 PWs)   bands (ev):

    -6.0136  -5.5623  -5.4647  -5.2542  -5.0354  -4.9435  -4.8592  -4.5672
    -4.2574  -4.1157  -4.0256  -3.9628  -3.8364  -3.7436  -3.6148  -3.5235
    -3.4569  -3.3218  -3.2139  -3.1492  -3.0323  -2.9601  -2.7723  -2.7207
    -2.6227  -2.5673  -2.4794  -2.3945  -2.2882  -2.1785  -2.0655  -1.9144
    -1.7894  -1.6599  -1.5030  -1.3467  -1.3073  -1.1963  -0.9605  -0.8486
    -0.7911  -0.6066  -0.5672  -0.4960  -0.3640  -0.2003  -0.1335   0.0435
     0.1204   0.1533   0.2239   0.3193   0.5501   0.6210   0.6993   0.8276
     0.9482   1.1223   1.1772   1.3338   1.3732   1.4709   1.5744   1.7108
     1.8088   1.8732   1.9380   2.0349   2.0927   2.1636   2.2200   2.2817
     2.4228   2.4685   2.4975   2.5928   2.6421   2.6927   2.7529   2.8445
     2.8637   2.9661   2.9784   3.0657   3.1652   3.2400   3.2505   3.2816
     3.3730   3.4093   3.4383   3.4924   3.5590   3.6367   3.6541   3.7119
     3.8109   3.8517   3.8922   3.9333   3.9966   4.0796   4.0917   4.1362
     4.1917   4.2342   4.2789   4.3332   4.3892   4.4752   4.5118   4.5742
     4.6708   4.7218   4.8134   4.8499   4.8969   5.0556   5.1302   5.2258
     5.2774   5.3523   5.3740   5.4693   5.5878   5.6773   5.7831   5.9212
     6.0404   6.0837   6.1944   6.3870   6.5240   6.6821   6.7400   6.8692
     6.9657   7.0022   7.1715   7.2536   7.3751   7.4275   7.5000   7.5838
     7.6599   7.7468   7.7644   7.8564   7.8985   7.9256   8.0465   8.0881
     8.1981   8.2458   8.2988   8.3307   8.4199   8.4864

     occupation numbers 
     1.0000   1.0000   1.0000   1.0000   1.0000   1.0000   1.0000   1.0000
     1.0000   1.0000   1.0000   1.0000   1.0000   1.0000   1.0000   1.0000
     1.0000   1.0000   1.0000   1.0000   1.0000   1.0000   1.0000   1.0000
     1.0000   1.0000   1.0000   1.0000   1.0000   1.0000   1.0000   1.0000
     1.0000   1.0000   1.0000   1.0000   1.0000   1.0000   1.0000   1.0000
     1.0000   1.0000   1.0000   1.0000   1.0000   1.0000   1.0000   1.0000
     1.0000   1.0000   1.0000   1.0000   1.0000   1.0000   1.0000   1.0000
     1.0000   1.0000   1.0000   1.0000   1.0000   1.0000   1.0000   1.0000
     1.0000   1.0000   1.0000   1.0000   1.0000   1.0000   1.0000   1.0000
     1.0000   1.0000   1.0000   1.0000   1.0000   1.0000   1.0000   1.0000
     1.0000   1.0000   1.0000   1.0000   1.0000   1.0000   1.0000   1.0000
     1.0000   1.0000   1.0000   1.0000   1.0000   1.0000   1.0000   1.0000
     1.0000   1.0000   1.0000   1.0001   1.0001   1.0002   1.0002   1.0003
     1.0005   1.0006   1.0009   1.0012   1.0018   1.0030   1.0038   1.0054
     1.0089   1.0115   1.0175   1.0205   1.0248   1.0431   1.0532   1.0662
     1.0726   1.0798   1.0813   1.0828   1.0696   1.0447   0.9956   0.8987
     0.7887   0.7442   0.6242   0.4158   0.2868   0.1709   0.1379   0.0815
     0.0526   0.0442   0.0183   0.0114   0.0054   0.0038   0.0023   0.0013
     0.0007   0.0004   0.0003   0.0002   0.0001   0.0001   0.0000   0.0000
     0.0000   0.0000   0.0000   0.0000   0.0000   0.0000

          k = 0.3333-0.3333-0.3333 ( 40314 PWs)   bands (ev):

    -6.0153  -5.5975  -5.3471  -5.2941  -5.1186  -4.9021  -4.8604  -4.6301
    -4.2385  -4.1076  -3.9555  -3.8562  -3.8372  -3.7701  -3.6507  -3.5634
    -3.4545  -3.2767  -3.2234  -3.1716  -3.1144  -2.9587  -2.8214  -2.7492
    -2.6317  -2.5945  -2.5053  -2.3251  -2.2558  -2.1248  -2.0035  -1.9268
    -1.8023  -1.6091  -1.5340  -1.3882  -1.2765  -1.0702  -1.0299  -0.9152
    -0.7653  -0.7026  -0.5559  -0.4912  -0.3242  -0.1982  -0.0986  -0.0676
     0.0283   0.2271   0.3080   0.4170   0.5128   0.6045   0.7497   0.8391
     0.8974   1.0352   1.1680   1.2362   1.3952   1.4539   1.5716   1.6813
     1.7818   1.8804   1.9397   2.0298   2.1231   2.1832   2.2476   2.3305
     2.4084   2.4416   2.5336   2.6457   2.7179   2.7798   2.8431   2.8811
     2.9462   2.9551   3.0305   3.0625   3.1132   3.1944   3.2093   3.2807
     3.3227   3.4470   3.4875   3.5188   3.5898   3.6127   3.6584   3.6825
     3.7139   3.7829   3.8156   3.8993   3.9283   3.9932   4.0519   4.1057
     4.1685   4.2365   4.2963   4.3263   4.4069   4.4579   4.5145   4.5680
     4.6705   4.7231   4.7917   4.8525   4.9821   5.0630   5.0992   5.1989
     5.2490   5.3272   5.3996   5.5670   5.6360   5.7999   5.8441   5.9215
     5.9961   6.0526   6.2884   6.4489   6.5541   6.6186   6.7113   6.8378
     6.9614   7.0366   7.2021   7.2181   7.3283   7.4416   7.5012   7.5327
     7.6040   7.6784   7.7502   7.8851   7.9462   8.0168   8.0592   8.1212
     8.1462   8.2168   8.2626   8.3307   8.3889   8.4791

     occupation numbers 
     1.0000   1.0000   1.0000   1.0000   1.0000   1.0000   1.0000   1.0000
     1.0000   1.0000   1.0000   1.0000   1.0000   1.0000   1.0000   1.0000
     1.0000   1.0000   1.0000   1.0000   1.0000   1.0000   1.0000   1.0000
     1.0000   1.0000   1.0000   1.0000   1.0000   1.0000   1.0000   1.0000
     1.0000   1.0000   1.0000   1.0000   1.0000   1.0000   1.0000   1.0000
     1.0000   1.0000   1.0000   1.0000   1.0000   1.0000   1.0000   1.0000
     1.0000   1.0000   1.0000   1.0000   1.0000   1.0000   1.0000   1.0000
     1.0000   1.0000   1.0000   1.0000   1.0000   1.0000   1.0000   1.0000
     1.0000   1.0000   1.0000   1.0000   1.0000   1.0000   1.0000   1.0000
     1.0000   1.0000   1.0000   1.0000   1.0000   1.0000   1.0000   1.0000
     1.0000   1.0000   1.0000   1.0000   1.0000   1.0000   1.0000   1.0000
     1.0000   1.0000   1.0000   1.0000   1.0000   1.0000   1.0000   1.0000
     1.0000   1.0000   1.0000   1.0000   1.0001   1.0001   1.0002   1.0002
     1.0004   1.0006   1.0010   1.0012   1.0020   1.0027   1.0038   1.0052
     1.0089   1.0116   1.0159   1.0207   1.0339   1.0441   1.0489   1.0626
     1.0692   1.0777   1.0825   1.0734   1.0579   0.9858   0.9573   0.8984
     0.8320   0.7764   0.5204   0.3546   0.2618   0.2128   0.1536   0.0932
     0.0537   0.0373   0.0154   0.0140   0.0072   0.0035   0.0023   0.0019
     0.0011   0.0006   0.0004   0.0001   0.0001   0.0000   0.0000   0.0000
     0.0000   0.0000   0.0000   0.0000   0.0000   0.0000

     the Fermi energy is     6.4019 ev

!    total energy              =    -511.58163679 Ry
     Harris-Foulkes estimate   =    -511.58163680 Ry
     estimated scf accuracy    <          9.9E-09 Ry

     The total energy is the sum of the following terms:

     one-electron contribution =     136.09615625 Ry
     hartree contribution      =      46.58849848 Ry
     xc contribution           =    -159.20768227 Ry
     ewald contribution        =    -535.11016024 Ry
     smearing contrib. (-TS)   =       0.05155098 Ry

     convergence has been achieved in  19 iterations

     Forces acting on atoms (cartesian axes, Ry/au):

     atom    1 type  1   force =     0.00816015    0.00856450    0.00433690
     atom    2 type  1   force =     0.01422187    0.01767708    0.01373744
     atom    3 type  1   force =     0.01725756   -0.00167971    0.00446365
     atom    4 type  1   force =     0.01379878    0.01386839    0.00149745
     atom    5 type  1   force =    -0.00052595    0.00166385   -0.00493623
     atom    6 type  1   force =     0.00141349    0.00266424    0.00798424
     atom    7 type  1   force =    -0.00223165    0.00136622   -0.00205802
     atom    8 type  1   force =    -0.00477472    0.00337833   -0.01536196
     atom    9 type  1   force =    -0.01251046    0.00751054    0.00034463
     atom   10 type  1   force =    -0.00092530   -0.00379460    0.00840875
     atom   11 type  1   force =    -0.00102270    0.01075195   -0.00699975
     atom   12 type  1   force =    -0.00702808    0.00006351   -0.00446347
     atom   13 type  1   force =    -0.00129111   -0.00249431    0.00884353
     atom   14 type  1   force =    -0.00985661   -0.00083671   -0.01007292
     atom   15 type  1   force =    -0.00098277    0.00631505    0.00577180
     atom   16 type  1   force =    -0.00354588    0.00453036    0.00622752
     atom   17 type  1   force =     0.00013433    0.00309133    0.00288296
     atom   18 type  1   force =     0.00273506    0.00190454   -0.01332691
     atom   19 type  1   force =     0.00365529    0.00464621    0.00158010
     atom   20 type  1   force =     0.00305236   -0.00320871   -0.00125242
     atom   21 type  1   force =    -0.00357721   -0.01534795    0.01682080
     atom   22 type  1   force =     0.00059736   -0.00104570    0.00752232
     atom   23 type  1   force =     0.00103027   -0.00123792   -0.01144987
     atom   24 type  1   force =    -0.00954824   -0.00172151   -0.00901672
     atom   25 type  1   force =    -0.00806878    0.00456341   -0.00161453
     atom   26 type  1   force =    -0.00107885    0.00370432   -0.00488311
     atom   27 type  1   force =    -0.01128546    0.00651115   -0.00001467
     atom   28 type  1   force =     0.00317213   -0.00229386   -0.00686190
     atom   29 type  1   force =    -0.00016382   -0.00488919    0.00415565
     atom   30 type  1   force =    -0.00536228   -0.00672167    0.00396868
     atom   31 type  1   force =    -0.00255484    0.00681228   -0.01823439
     atom   32 type  1   force =    -0.00523588    0.00082146   -0.00771359
     atom   33 type  1   force =     0.00089398   -0.01051804   -0.00261963
     atom   34 type  1   force =     0.00158590    0.00055119    0.00417333
     atom   35 type  1   force =    -0.00395870   -0.00512741    0.00355116
     atom   36 type  1   force =    -0.00442409   -0.01375628   -0.02254604
     atom   37 type  1   force =    -0.00281485   -0.00442581    0.00232284
     atom   38 type  1   force =     0.00476859   -0.00572334    0.00460277
     atom   39 type  1   force =     0.00705196    0.00523367    0.00534659
     atom   40 type  1   force =     0.00801174   -0.00711812    0.00545536
     atom   41 type  1   force =    -0.00946669    0.00041331    0.00921012
     atom   42 type  1   force =     0.00259300    0.00860428    0.00238466
     atom   43 type  1   force =     0.00303219   -0.00184891   -0.00882179
     atom   44 type  1   force =     0.00262235    0.01114586    0.00096952
     atom   45 type  1   force =    -0.00442730   -0.00000093    0.00138872
     atom   46 type  1   force =     0.00784602    0.00377525   -0.00455713
     atom   47 type  1   force =     0.02147504    0.00573029    0.00760376
     atom   48 type  1   force =    -0.00482849    0.00493840    0.00539936
     atom   49 type  1   force =    -0.01252184   -0.01068684   -0.00438537
     atom   50 type  1   force =    -0.00155731    0.00484026    0.00167725
     atom   51 type  1   force =     0.00660845   -0.00777747   -0.00181817
     atom   52 type  1   force =    -0.00060893    0.00046265    0.00796063
     atom   53 type  1   force =     0.00669145   -0.00330270    0.00536951
     atom   54 type  1   force =     0.01002586    0.00461244   -0.00041077
     atom   55 type  1   force =    -0.00222465    0.00040257   -0.00718613
     atom   56 type  1   force =    -0.00120204   -0.01549747   -0.00964437
     atom   57 type  1   force =    -0.01632361   -0.00728628    0.00591469
     atom   58 type  1   force =     0.00878266    0.00071344    0.00352314
     atom   59 type  1   force =    -0.00089095   -0.00370646    0.00108276
     atom   60 type  1   force =    -0.00931985   -0.00029684   -0.01310115
     atom   61 type  1   force =    -0.01244574   -0.00720449   -0.00416523
     atom   62 type  1   force =     0.00370587   -0.01129312   -0.00196177
     atom   63 type  1   force =     0.00293117   -0.00008813    0.00903703
     atom   64 type  1   force =    -0.00378755   -0.00229442    0.01061246
     atom   65 type  2   force =     0.00987596    0.01129655    0.00651247
     atom   66 type  2   force =     0.00356726    0.00223673    0.00143653
     atom   67 type  2   force =     0.01359484    0.00781341   -0.01999093
     atom   68 type  2   force =     0.00361035   -0.01974984    0.01775591
     atom   69 type  2   force =     0.00096491   -0.00342307   -0.00177626
     atom   70 type  2   force =    -0.02374578   -0.00510731   -0.00976653
     atom   71 type  2   force =     0.00432869    0.00319514    0.00272287
     atom   72 type  2   force =     0.00232208    0.00513099    0.00645186
     The non-local contrib.  to forces
     atom    1 type  1   force =     0.05117070   -0.00821125   -0.05848736
     atom    2 type  1   force =     0.03270740   -0.04053193    0.01633773
     atom    3 type  1   force =    -0.00273030   -0.00479199    0.05578993
     atom    4 type  1   force =     0.04518561    0.00742974    0.11088696
     atom    5 type  1   force =     0.02164487   -0.02705929    0.01235568
     atom    6 type  1   force =    -0.02299446   -0.01272336   -0.02208484
     atom    7 type  1   force =     0.01872282   -0.08194767   -0.01653611
     atom    8 type  1   force =     0.04137922   -0.06346750    0.02938892
     atom    9 type  1   force =    -0.02644258   -0.02156933    0.05922147
     atom   10 type  1   force =    -0.00745267   -0.02568781    0.08364078
     atom   11 type  1   force =     0.01307076    0.03423394   -0.01608985
     atom   12 type  1   force =     0.00043611    0.00953246    0.06275057
     atom   13 type  1   force =    -0.06259449    0.00655545    0.02316476
     atom   14 type  1   force =     0.04264022    0.02960266    0.05424387
     atom   15 type  1   force =    -0.05839300   -0.05495629    0.03698995
     atom   16 type  1   force =     0.01184206   -0.04794358   -0.00447724
     atom   17 type  1   force =    -0.00339584   -0.07657039   -0.09882813
     atom   18 type  1   force =     0.02122586   -0.00040173   -0.00317774
     atom   19 type  1   force =    -0.06057148   -0.03188289    0.02641179
     atom   20 type  1   force =     0.02930133    0.02024523   -0.00794599
     atom   21 type  1   force =    -0.01054030    0.00708195   -0.05037909
     atom   22 type  1   force =    -0.01493480   -0.01548634   -0.04165324
     atom   23 type  1   force =     0.05465790    0.00723120   -0.06658788
     atom   24 type  1   force =     0.04085370    0.01018731   -0.01552962
     atom   25 type  1   force =    -0.04017055    0.03992702   -0.05536409
     atom   26 type  1   force =    -0.06041593   -0.03389893    0.05396015
     atom   27 type  1   force =    -0.03185585   -0.01639270    0.01211634
     atom   28 type  1   force =    -0.02028589   -0.02356842    0.06338719
     atom   29 type  1   force =    -0.06848328    0.09926062   -0.00495826
     atom   30 type  1   force =     0.01428711    0.03484248   -0.06922540
     atom   31 type  1   force =    -0.00573606   -0.04027715   -0.01768351
     atom   32 type  1   force =     0.03158595    0.03799039    0.01048608
     atom   33 type  1   force =    -0.09387432   -0.10674768    0.04607019
     atom   34 type  1   force =     0.01744924    0.01935906    0.01833400
     atom   35 type  1   force =    -0.06895652    0.02965390    0.04036259
     atom   36 type  1   force =    -0.04368268    0.05181493    0.07215603
     atom   37 type  1   force =    -0.04323417   -0.04244162   -0.07300469
     atom   38 type  1   force =    -0.02472894   -0.03512212   -0.07261564
     atom   39 type  1   force =     0.05369356    0.02986475   -0.00662069
     atom   40 type  1   force =    -0.01656723   -0.03441192   -0.01739173
     atom   41 type  1   force =    -0.02476329    0.05014806   -0.03943897
     atom   42 type  1   force =    -0.04170438   -0.02870368   -0.00286010
     atom   43 type  1   force =     0.02943352   -0.02002956   -0.00494926
     atom   44 type  1   force =     0.02346866    0.02874239    0.00239052
     atom   45 type  1   force =    -0.02059804    0.00325348    0.03396034
     atom   46 type  1   force =    -0.05271128   -0.03139971    0.10032049
     atom   47 type  1   force =    -0.11801710   -0.01806116   -0.02577764
     atom   48 type  1   force =     0.05990595    0.01336262   -0.01519185
     atom   49 type  1   force =    -0.03875236    0.03601825    0.06375689
     atom   50 type  1   force =    -0.01189134   -0.02925127   -0.00743176
     atom   51 type  1   force =    -0.10416843    0.01164918    0.06661268
     atom   52 type  1   force =     0.06418028    0.02344920    0.08239580
     atom   53 type  1   force =    -0.02522031    0.02385885   -0.06620564
     atom   54 type  1   force =     0.02729063    0.04570032   -0.11611833
     atom   55 type  1   force =     0.02363907   -0.00389850   -0.03841655
     atom   56 type  1   force =     0.00866121    0.03682081   -0.00125700
     atom   57 type  1   force =     0.07324154   -0.09640205   -0.04710939
     atom   58 type  1   force =    -0.03173915   -0.01115304    0.05141956
     atom   59 type  1   force =     0.01308143    0.06078835   -0.01047703
     atom   60 type  1   force =     0.03445943    0.04638760   -0.04900089
     atom   61 type  1   force =    -0.00030661   -0.00755173    0.10155276
     atom   62 type  1   force =    -0.01393232    0.02498846   -0.04286315
     atom   63 type  1   force =     0.08407251    0.04066193   -0.01659643
     atom   64 type  1   force =    -0.02624875   -0.02071053   -0.00761878
     atom   65 type  2   force =     0.00000000    0.00000000    0.00000000
     atom   66 type  2   force =     0.00000000    0.00000000    0.00000000
     atom   67 type  2   force =     0.00000000    0.00000000    0.00000000
[...]
     atom   25 type  1   force =     0.00000000    0.00000000    0.00000000
     atom   26 type  1   force =     0.00000000    0.00000000    0.00000000
     atom   27 type  1   force =     0.00000000    0.00000000    0.00000000
     atom   28 type  1   force =     0.00000000    0.00000000    0.00000000
     atom   29 type  1   force =     0.00000000    0.00000000    0.00000000
     atom   30 type  1   force =     0.00000000    0.00000000    0.00000000
     atom   31 type  1   force =     0.00000000    0.00000000    0.00000000
     atom   32 type  1   force =     0.00000000    0.00000000    0.00000000
     atom   33 type  1   force =     0.00000000    0.00000000    0.00000000
     atom   34 type  1   force =     0.00000000    0.00000000    0.00000000
     atom   35 type  1   force =     0.00000000    0.00000000    0.00000000
     atom   36 type  1   force =     0.00000000    0.00000000    0.00000000
     atom   37 type  1   force =     0.00000000    0.00000000    0.00000000
     atom   38 type  1   force =     0.00000000    0.00000000    0.00000000
     atom   39 type  1   force =     0.00000000    0.00000000    0.00000000
     atom   40 type  1   force =     0.00000000    0.00000000    0.00000000
     atom   41 type  1   force =     0.00000000    0.00000000    0.00000000
     atom   42 type  1   force =     0.00000000    0.00000000    0.00000000
     atom   43 type  1   force =     0.00000000    0.00000000    0.00000000
     atom   44 type  1   force =     0.00000000    0.00000000    0.00000000
     atom   45 type  1   force =     0.00000000    0.00000000    0.00000000
     atom   46 type  1   force =     0.00000000    0.00000000    0.00000000
     atom   47 type  1   force =     0.00000000    0.00000000    0.00000000
     atom   48 type  1   force =     0.00000000    0.00000000    0.00000000
     atom   49 type  1   force =     0.00000000    0.00000000    0.00000000
     atom   50 type  1   force =     0.00000000    0.00000000    0.00000000
     atom   51 type  1   force =     0.00000000    0.00000000    0.00000000
     atom   52 type  1   force =     0.00000000    0.00000000    0.00000000
     atom   53 type  1   force =     0.00000000    0.00000000    0.00000000
     atom   54 type  1   force =     0.00000000    0.00000000    0.00000000
     atom   55 type  1   force =     0.00000000    0.00000000    0.00000000
     atom   56 type  1   force =     0.00000000    0.00000000    0.00000000
     atom   57 type  1   force =     0.00000000    0.00000000    0.00000000
     atom   58 type  1   force =     0.00000000    0.00000000    0.00000000
     atom   59 type  1   force =     0.00000000    0.00000000    0.00000000
     atom   60 type  1   force =     0.00000000    0.00000000    0.00000000
     atom   61 type  1   force =     0.00000000    0.00000000    0.00000000
     atom   62 type  1   force =     0.00000000    0.00000000    0.00000000
     atom   63 type  1   force =     0.00000000    0.00000000    0.00000000
     atom   64 type  1   force =     0.00000000    0.00000000    0.00000000
     atom   65 type  2   force =     0.00000000    0.00000000    0.00000000
     atom   66 type  2   force =     0.00000000    0.00000000    0.00000000
     atom   67 type  2   force =     0.00000000    0.00000000    0.00000000
     atom   68 type  2   force =     0.00000000    0.00000000    0.00000000
     atom   69 type  2   force =     0.00000000    0.00000000    0.00000000
     atom   70 type  2   force =     0.00000000    0.00000000    0.00000000
     atom   71 type  2   force =     0.00000000    0.00000000    0.00000000
     atom   72 type  2   force =     0.00000000    0.00000000    0.00000000
     The Hubbard contrib.    to forces
     atom    1 type  1   force =     0.00000000    0.00000000    0.00000000
     atom    2 type  1   force =     0.00000000    0.00000000    0.00000000
     atom    3 type  1   force =     0.00000000    0.00000000    0.00000000
     atom    4 type  1   force =     0.00000000    0.00000000    0.00000000
     atom    5 type  1   force =     0.00000000    0.00000000    0.00000000
     atom    6 type  1   force =     0.00000000    0.00000000    0.00000000
     atom    7 type  1   force =     0.00000000    0.00000000    0.00000000
     atom    8 type  1   force =     0.00000000    0.00000000    0.00000000
     atom    9 type  1   force =     0.00000000    0.00000000    0.00000000
     atom   10 type  1   force =     0.00000000    0.00000000    0.00000000
     atom   11 type  1   force =     0.00000000    0.00000000    0.00000000
     atom   12 type  1   force =     0.00000000    0.00000000    0.00000000
     atom   13 type  1   force =     0.00000000    0.00000000    0.00000000
     atom   14 type  1   force =     0.00000000    0.00000000    0.00000000
     atom   15 type  1   force =     0.00000000    0.00000000    0.00000000
     atom   16 type  1   force =     0.00000000    0.00000000    0.00000000
     atom   17 type  1   force =     0.00000000    0.00000000    0.00000000
     atom   18 type  1   force =     0.00000000    0.00000000    0.00000000
     atom   19 type  1   force =     0.00000000    0.00000000    0.00000000
     atom   20 type  1   force =     0.00000000    0.00000000    0.00000000
     atom   21 type  1   force =     0.00000000    0.00000000    0.00000000
     atom   22 type  1   force =     0.00000000    0.00000000    0.00000000
     atom   23 type  1   force =     0.00000000    0.00000000    0.00000000
     atom   24 type  1   force =     0.00000000    0.00000000    0.00000000
     atom   25 type  1   force =     0.00000000    0.00000000    0.00000000
     atom   26 type  1   force =     0.00000000    0.00000000    0.00000000
     atom   27 type  1   force =     0.00000000    0.00000000    0.00000000
     atom   28 type  1   force =     0.00000000    0.00000000    0.00000000
     atom   29 type  1   force =     0.00000000    0.00000000    0.00000000
     atom   30 type  1   force =     0.00000000    0.00000000    0.00000000
     atom   31 type  1   force =     0.00000000    0.00000000    0.00000000
     atom   32 type  1   force =     0.00000000    0.00000000    0.00000000
     atom   33 type  1   force =     0.00000000    0.00000000    0.00000000
     atom   34 type  1   force =     0.00000000    0.00000000    0.00000000
     atom   35 type  1   force =     0.00000000    0.00000000    0.00000000
     atom   36 type  1   force =     0.00000000    0.00000000    0.00000000
     atom   37 type  1   force =     0.00000000    0.00000000    0.00000000
     atom   38 type  1   force =     0.00000000    0.00000000    0.00000000
     atom   39 type  1   force =     0.00000000    0.00000000    0.00000000
     atom   40 type  1   force =     0.00000000    0.00000000    0.00000000
     atom   41 type  1   force =     0.00000000    0.00000000    0.00000000
     atom   42 type  1   force =     0.00000000    0.00000000    0.00000000
     atom   43 type  1   force =     0.00000000    0.00000000    0.00000000
     atom   44 type  1   force =     0.00000000    0.00000000    0.00000000
     atom   45 type  1   force =     0.00000000    0.00000000    0.00000000
     atom   46 type  1   force =     0.00000000    0.00000000    0.00000000
     atom   47 type  1   force =     0.00000000    0.00000000    0.00000000
     atom   48 type  1   force =     0.00000000    0.00000000    0.00000000
     atom   49 type  1   force =     0.00000000    0.00000000    0.00000000
     atom   50 type  1   force =     0.00000000    0.00000000    0.00000000
     atom   51 type  1   force =     0.00000000    0.00000000    0.00000000
     atom   52 type  1   force =     0.00000000    0.00000000    0.00000000
     atom   53 type  1   force =     0.00000000    0.00000000    0.00000000
     atom   54 type  1   force =     0.00000000    0.00000000    0.00000000
     atom   55 type  1   force =     0.00000000    0.00000000    0.00000000
     atom   56 type  1   force =     0.00000000    0.00000000    0.00000000
     atom   57 type  1   force =     0.00000000    0.00000000    0.00000000
     atom   58 type  1   force =     0.00000000    0.00000000    0.00000000
     atom   59 type  1   force =     0.00000000    0.00000000    0.00000000
     atom   60 type  1   force =     0.00000000    0.00000000    0.00000000
     atom   61 type  1   force =     0.00000000    0.00000000    0.00000000
     atom   62 type  1   force =     0.00000000    0.00000000    0.00000000
     atom   63 type  1   force =     0.00000000    0.00000000    0.00000000
     atom   64 type  1   force =     0.00000000    0.00000000    0.00000000
     atom   65 type  2   force =     0.00000000    0.00000000    0.00000000
     atom   66 type  2   force =     0.00000000    0.00000000    0.00000000
     atom   67 type  2   force =     0.00000000    0.00000000    0.00000000
     atom   68 type  2   force =     0.00000000    0.00000000    0.00000000
     atom   69 type  2   force =     0.00000000    0.00000000    0.00000000
     atom   70 type  2   force =     0.00000000    0.00000000    0.00000000
     atom   71 type  2   force =     0.00000000    0.00000000    0.00000000
     atom   72 type  2   force =     0.00000000    0.00000000    0.00000000
     The SCF correction term to forces
     atom    1 type  1   force =    -0.00002410   -0.00000733    0.00000382
     atom    2 type  1   force =    -0.00000151    0.00000820    0.00002040
     atom    3 type  1   force =    -0.00001753   -0.00000579   -0.00001047
     atom    4 type  1   force =     0.00001719   -0.00000386   -0.00000630
     atom    5 type  1   force =    -0.00001584    0.00000416    0.00000470
     atom    6 type  1   force =     0.00001639    0.00001038    0.00000747
     atom    7 type  1   force =     0.00000147   -0.00000629    0.00000768
     atom    8 type  1   force =     0.00000077   -0.00000511   -0.00002024
     atom    9 type  1   force =     0.00000093   -0.00000856   -0.00000507
     atom   10 type  1   force =     0.00001545    0.00000559   -0.00001566
     atom   11 type  1   force =     0.00000478   -0.00000205   -0.00001641
     atom   12 type  1   force =     0.00000784    0.00000646   -0.00002127
     atom   13 type  1   force =     0.00000306   -0.00000610    0.00000377
     atom   14 type  1   force =    -0.00000006   -0.00001612    0.00001686
     atom   15 type  1   force =     0.00001227    0.00001182   -0.00000198
     atom   16 type  1   force =     0.00002292   -0.00001369    0.00001682
     atom   17 type  1   force =     0.00000076   -0.00000342    0.00002045
     atom   18 type  1   force =    -0.00001655   -0.00000341   -0.00002146
     atom   19 type  1   force =     0.00000348    0.00000280   -0.00001166
     atom   20 type  1   force =     0.00000971    0.00000432   -0.00001324
     atom   21 type  1   force =    -0.00000516   -0.00000747   -0.00000284
     atom   22 type  1   force =    -0.00000279    0.00000369    0.00001787
     atom   23 type  1   force =    -0.00001565    0.00000318   -0.00001828
     atom   24 type  1   force =    -0.00002146   -0.00000806    0.00002013
     atom   25 type  1   force =     0.00000170    0.00000716   -0.00001410
     atom   26 type  1   force =    -0.00002075   -0.00000949    0.00000447
     atom   27 type  1   force =     0.00001786    0.00000362    0.00002058
     atom   28 type  1   force =    -0.00002028   -0.00000979    0.00002367
     atom   29 type  1   force =     0.00000629   -0.00000128    0.00001236
     atom   30 type  1   force =     0.00001591   -0.00000719   -0.00001545
     atom   31 type  1   force =    -0.00001733   -0.00000440    0.00002267
     atom   32 type  1   force =     0.00000712    0.00000534    0.00001584
     atom   33 type  1   force =    -0.00000814    0.00000357   -0.00002292
     atom   34 type  1   force =     0.00001356    0.00001210    0.00001282
     atom   35 type  1   force =    -0.00002100   -0.00000707    0.00000144
     atom   36 type  1   force =     0.00001220    0.00000202   -0.00000953
     atom   37 type  1   force =     0.00001175   -0.00000320    0.00001415
     atom   38 type  1   force =    -0.00001384    0.00001018    0.00002460
     atom   39 type  1   force =     0.00001491   -0.00001504    0.00001852
     atom   40 type  1   force =    -0.00001794   -0.00000493   -0.00002130
     atom   41 type  1   force =     0.00001431   -0.00000037   -0.00001428
     atom   42 type  1   force =    -0.00002066   -0.00000093    0.00002366
     atom   43 type  1   force =    -0.00000354   -0.00000925   -0.00001256
     atom   44 type  1   force =    -0.00001346    0.00000449    0.00001148
     atom   45 type  1   force =    -0.00001624    0.00000561    0.00000768
     atom   46 type  1   force =     0.00001792   -0.00000936   -0.00001714
     atom   47 type  1   force =    -0.00001581    0.00000167    0.00000513
     atom   48 type  1   force =     0.00001245    0.00001041   -0.00000575
     atom   49 type  1   force =     0.00000311   -0.00000959   -0.00001607
     atom   50 type  1   force =    -0.00000560    0.00000831   -0.00001923
     atom   51 type  1   force =     0.00001819   -0.00000345   -0.00000136
     atom   52 type  1   force =    -0.00001354    0.00000931    0.00000692
     atom   53 type  1   force =    -0.00000469   -0.00000286   -0.00002030
     atom   54 type  1   force =     0.00001961   -0.00000922    0.00000323
     atom   55 type  1   force =    -0.00000944    0.00000843   -0.00000202
     atom   56 type  1   force =    -0.00001751    0.00001289    0.00001758
     atom   57 type  1   force =     0.00000507   -0.00000822   -0.00000462
     atom   58 type  1   force =     0.00001075    0.00000621   -0.00000895
     atom   59 type  1   force =     0.00001921    0.00001277    0.00001141
     atom   60 type  1   force =    -0.00001810   -0.00000396   -0.00002387
     atom   61 type  1   force =    -0.00001445    0.00000370   -0.00002243
     atom   62 type  1   force =     0.00001689    0.00000251    0.00001663
     atom   63 type  1   force =     0.00002234   -0.00001270    0.00001376
     atom   64 type  1   force =    -0.00000004    0.00001171   -0.00000885
     atom   65 type  2   force =     0.00000244   -0.00000320    0.00000095
     atom   66 type  2   force =     0.00000298   -0.00000279   -0.00000454
     atom   67 type  2   force =    -0.00000080    0.00000135    0.00000594
     atom   68 type  2   force =    -0.00000579   -0.00000166    0.00000538
     atom   69 type  2   force =    -0.00000176    0.00000055   -0.00000068
     atom   70 type  2   force =    -0.00000368    0.00000182    0.00000420
     atom   71 type  2   force =    -0.00000053   -0.00000127   -0.00000474
     atom   72 type  2   force =     0.00000108    0.00000113   -0.00000354

     Total force =     0.111369     Total SCF correction =     0.000176


     Computing stress (Cartesian axis) and pressure

          total   stress  (Ry/bohr**3)                   (kbar)     P=    2.69
   0.00006079  -0.00011062  -0.00000250          8.94    -16.27     -0.37
  -0.00011062  -0.00002278  -0.00009331        -16.27     -3.35    -13.73
  -0.00000250  -0.00009331   0.00001675         -0.37    -13.73      2.46

     kinetic stress (kbar)   2332.30    -23.11     -9.20
                              -23.11   2322.63    -17.69
                               -9.20    -17.69   2328.68

     local   stress (kbar)  -1309.72   -110.66   -112.09
                             -110.66  -1186.21     58.57
                             -112.09     58.57  -1455.77

     nonloc. stress (kbar)   2535.26     10.47     -3.36
                               10.47   2546.42      4.62
                               -3.36      4.62   2539.98

     hartree stress (kbar)    272.90     20.04     32.08
                               20.04    189.09    -29.92
                               32.08    -29.92    319.20

     exc-cor stress (kbar)   -818.08      0.40      0.40
                                0.40   -818.03     -0.13
                                0.40     -0.13   -817.94

     corecor stress (kbar)      0.00      0.00      0.00
                                0.00      0.00      0.00
                                0.00      0.00      0.00

     ewald   stress (kbar)  -3003.71     86.60     91.80
                               86.60  -3057.26    -29.18
                               91.80    -29.18  -2911.68

     hubbard stress (kbar)      0.00      0.00      0.00
                                0.00      0.00      0.00
                                0.00      0.00      0.00

     london  stress (kbar)      0.00      0.00      0.00
                                0.00      0.00      0.00
                                0.00      0.00      0.00

     DFT-D3  stress (kbar)      0.00      0.00      0.00
                                0.00      0.00      0.00
                                0.00      0.00      0.00

     XDM     stress (kbar)      0.00      0.00      0.00
                                0.00      0.00      0.00
                                0.00      0.00      0.00

     dft-nl  stress (kbar)      0.00      0.00      0.00
                                0.00      0.00      0.00
                                0.00      0.00      0.00

     TS-vdW  stress (kbar)      0.00      0.00      0.00
                                0.00      0.00      0.00
                                0.00      0.00      0.00



     Writing output data file liquid_optimize4.save

     init_run     :     25.91s CPU     27.18s WALL (       1 calls)
     electrons    :    921.26s CPU   1003.31s WALL (       1 calls)
     forces       :      5.67s CPU      5.72s WALL (       1 calls)
     stress       :     37.64s CPU     37.66s WALL (       1 calls)

     Called by init_run:
     wfcinit      :     25.32s CPU     26.56s WALL (       1 calls)
     wfcinit:atom :      0.14s CPU      0.28s WALL (      14 calls)
     wfcinit:wfcr :     23.36s CPU     24.28s WALL (      14 calls)
     potinit      :      0.14s CPU      0.15s WALL (       1 calls)

     Called by electrons:
     c_bands      :    810.58s CPU    886.34s WALL (      20 calls)
     sum_band     :    108.59s CPU    112.75s WALL (      20 calls)
     v_of_rho     :      1.75s CPU      1.81s WALL (      20 calls)
     v_h          :      0.10s CPU      0.11s WALL (      20 calls)
     v_xc         :      1.65s CPU      1.71s WALL (      20 calls)
     mix_rho      :      0.33s CPU      0.37s WALL (      20 calls)

     Called by c_bands:
     init_us_2    :      6.49s CPU      6.54s WALL (     602 calls)
     cegterg      :    800.00s CPU    838.50s WALL (     280 calls)

     Called by sum_band:

     Called by *egterg:
     h_psi        :    569.92s CPU    590.93s WALL (    1242 calls)
     g_psi        :      2.18s CPU      2.18s WALL (     948 calls)
     cdiaghg      :     84.09s CPU     84.40s WALL (    1214 calls)
     cegterg:over :     63.83s CPU     64.82s WALL (     948 calls)
     cegterg:upda :     45.88s CPU     46.02s WALL (     948 calls)
     cegterg:last :     23.64s CPU     23.76s WALL (     280 calls)

     Called by h_psi:
     h_psi:pot    :    565.39s CPU    586.23s WALL (    1242 calls)
     h_psi:calbec :     50.71s CPU     51.36s WALL (    1242 calls)
     vloc_psi     :    462.88s CPU    482.93s WALL (    1242 calls)
     add_vuspsi   :     51.79s CPU     51.94s WALL (    1242 calls)

     General routines
     calbec       :     56.09s CPU     56.79s WALL (    1312 calls)
     fft          :      0.83s CPU      0.91s WALL (     229 calls)
     fftw         :    510.64s CPU    533.36s WALL (  258102 calls)

     Parallel routines
     fft_scatt_xy :     61.64s CPU     64.68s WALL (  258331 calls)
     fft_scatt_yz :     95.00s CPU    104.63s WALL (  258331 calls)

     PWSCF        : 16m31.58s CPU    18m 1.02s WALL


   This run was terminated on:   8:56:25   7Nov2020            

=------------------------------------------------------------------------------=
   JOB DONE.
=------------------------------------------------------------------------------=
