
     Program PWSCF v.6.2 (svn rev. 14038) starts on  7Nov2020 at  8:18:45 

     This program is part of the open-source Quantum ESPRESSO suite
     for quantum simulation of materials; please cite
         "P. Giannozzi et al., J. Phys.:Condens. Matter 21 395502 (2009);
         "P. Giannozzi et al., J. Phys.:Condens. Matter 29 465901 (2017);
          URL http://www.quantum-espresso.org", 
     in publications or presentations arising from this work. More details at
     http://www.quantum-espresso.org/quote

     Parallel version (MPI), running on     8 processors

     MPI processes distributed on     1 nodes
     R & G space division:  proc/nbgrp/npool/nimage =       8
     Waiting for input...
     Reading input from standard input
Warning: card &IONS ignored
Warning: card / ignored

     Current dimensions of program PWSCF are:
     Max number of different atomic species (ntypx) = 10
     Max number of k-points (npk) =  40000
     Max angular momentum in pseudopotentials (lmaxx) =  3

     Subspace diagonalization in iterative solution of the eigenvalue problem:
     a serial algorithm will be used


     Parallelization info
     --------------------
     sticks:   dense  smooth     PW     G-vecs:    dense   smooth      PW
     Min        1627    1627    429               136036   136036   18442
     Max        1628    1628    430               136039   136039   18443
     Sum       13023   13023   3437              1088301  1088301  147537



     bravais-lattice index     =            0
     lattice parameter (alat)  =      30.7617  a.u.
     unit-cell volume          =   29595.6989 (a.u.)^3
     number of atoms/cell      =          219
     number of atomic types    =            2
     number of electrons       =       864.00
     number of Kohn-Sham states=          518
     kinetic-energy cutoff     =      42.0000  Ry
     charge density cutoff     =     168.0000  Ry
     convergence threshold     =      1.0E-08
     mixing beta               =       0.3000
     number of iterations used =            8  plain     mixing
     Exchange-correlation      = SLA-PW-PBX-PBC ( 1  4  3  4 0 0)

     celldm(1)=  30.761691  celldm(2)=   0.000000  celldm(3)=   0.000000
     celldm(4)=   0.000000  celldm(5)=   0.000000  celldm(6)=   0.000000

     crystal axes: (cart. coord. in units of alat)
               a(1) = (   1.000000   0.000000   0.000000 )  
               a(2) = (   0.040158   1.028817   0.000000 )  
               a(3) = (  -0.038077  -0.015853   0.988235 )  

     reciprocal axes: (cart. coord. in units 2 pi/alat)
               b(1) = (  1.000000 -0.039033  0.037905 )  
               b(2) = ( -0.000000  0.971991  0.015593 )  
               b(3) = (  0.000000  0.000000  1.011905 )  


     PseudoPot. # 1 for Si read from file:
     ./Si.pbe-hgh.UPF
     MD5 check sum: 9a9f0f6e09139bfdb36b03ff6bc35900
     Pseudo is Norm-conserving, Zval =  4.0
     Generated in analytical, separable form
     Using radial grid of 1141 points,  3 beta functions with: 
                l(1) =   0
                l(2) =   0
                l(3) =   1

     PseudoPot. # 2 for H  read from file:
     ./H.pbe-hgh.UPF
     MD5 check sum: 5f350582108a937bec95f27f5610ab08
     Pseudo is Norm-conserving, Zval =  1.0
     Generated in analytical, separable form
     Using radial grid of  929 points,  0 beta functions with: 

     atomic species   valence    mass     pseudopotential
        Si             4.00    28.08000     Si( 1.00)
        H              1.00     1.00784     H ( 1.00)

     No symmetry found


                                    s                        frac. trans.

      isym =  1     identity                                     

 cryst.   s( 1) = (     1          0          0      )
                  (     0          1          0      )
                  (     0          0          1      )

 cart.    s( 1) = (  1.0000000  0.0000000  0.0000000 )
                  (  0.0000000  1.0000000  0.0000000 )
                  (  0.0000000  0.0000000  1.0000000 )


   Cartesian axes

     site n.     atom                  positions (alat units)
         1           Si  tau(   1) = (   0.7509146   0.9294255   0.9034480  )
         2           Si  tau(   2) = (   0.0952638   0.0909381   0.0834622  )
         3           Si  tau(   3) = (   0.1788020   0.1750122   0.0005614  )
         4           Si  tau(   4) = (   0.2606926   0.2591090   0.0827656  )
         5           Si  tau(   5) = (   0.2025752   1.0247911   0.1677518  )
         6           Si  tau(   6) = (   0.2457283   0.0826819   0.2473858  )
         7           Si  tau(   7) = (   0.0005621   0.1659621   0.1624727  )
         8           Si  tau(   8) = (   0.0844013   0.2524440   0.2444635  )
         9           Si  tau(   9) = (   1.0272941   1.0218028   0.3312009  )
        10           Si  tau(  10) = (   0.0716731   0.0795191   0.4109969  )
        11           Si  tau(  11) = (   0.1603758   0.1648343   0.3302571  )
        12           Si  tau(  12) = (   0.2446541   0.2510212   0.4110078  )
        13           Si  tau(  13) = (   0.1878864   1.0193195   0.4951075  )
        14           Si  tau(  14) = (   0.2320593   0.0768135   0.5755765  )
        15           Si  tau(  15) = (  -0.0123022   0.1620697   0.4952152  )
        16           Si  tau(  16) = (   0.0719368   0.2485497   0.5756575  )
        17           Si  tau(  17) = (   0.0147666   1.0167723   0.6595320  )
        18           Si  tau(  18) = (   0.0579746   0.0756342   0.7396313  )
        19           Si  tau(  19) = (   0.1480656   0.1597643   0.6596446  )
        20           Si  tau(  20) = (   0.2324043   0.2458315   0.7402885  )
        21           Si  tau(  21) = (   0.1382538  -0.0091989   0.8228338  )
        22           Si  tau(  22) = (   0.2222903   0.0739514   0.9058079  )
        23           Si  tau(  23) = (  -0.0247238   0.1555657   0.8274162  )
        24           Si  tau(  24) = (   0.0598062   0.2437984   0.9055717  )
        25           Si  tau(  25) = (   0.0135651   0.3417415   0.0011859  )
        26           Si  tau(  26) = (   0.0978121   0.4278029   0.0817453  )
        27           Si  tau(  27) = (   0.1867028   0.5127785   0.0012288  )
        28           Si  tau(  28) = (   0.2713619   0.5983594   0.0819145  )
        29           Si  tau(  29) = (   0.1738189   0.3391891   0.1660659  )
        30           Si  tau(  30) = (   0.2580808   0.4250572   0.2468709  )
        31           Si  tau(  31) = (   0.0136148   0.5098831   0.1661311  )
        32           Si  tau(  32) = (   0.0978314   0.5956375   0.2471614  )
        33           Si  tau(  33) = (   0.0009965   0.3351371   0.3296336  )
        34           Si  tau(  34) = (   0.0848636   0.4215667   0.4105887  )
        35           Si  tau(  35) = (   0.1741466   0.5072177   0.3311910  )
        36           Si  tau(  36) = (   0.2582701   0.5939339   0.4114011  )
        37           Si  tau(  37) = (   0.1609874   0.3336098   0.4953882  )
        38           Si  tau(  38) = (   0.2453792   0.4198896   0.5757988  )
        39           Si  tau(  39) = (   0.0009519   0.5032952   0.4955423  )
        40           Si  tau(  40) = (   0.0855084   0.5902072   0.5748976  )
        41           Si  tau(  41) = (  -0.0121420   0.3298521   0.6610074  )
        42           Si  tau(  42) = (   0.0723129   0.4172380   0.7401936  )
        43           Si  tau(  43) = (   0.1614884   0.5024314   0.6600794  )
        44           Si  tau(  44) = (   0.2450912   0.5893887   0.7408459  )
        45           Si  tau(  45) = (   0.1484491   0.3285812   0.8243715  )
        46           Si  tau(  46) = (   0.2327405   0.4147718   0.9050193  )
        47           Si  tau(  47) = (   0.9881900   0.4994395   0.8245889  )
        48           Si  tau(  48) = (   0.0722877   0.5856705   0.9053454  )
        49           Si  tau(  49) = (   1.0262498   0.6837066   0.0015129  )
        50           Si  tau(  50) = (   0.1116134   0.7684118   0.0822173  )
        51           Si  tau(  51) = (   0.2009021   0.8554361   0.0052022  )
        52           Si  tau(  52) = (   0.2856619   0.9429901   0.0828901  )
        53           Si  tau(  53) = (   0.1874374   0.6803383   0.1667152  )
        54           Si  tau(  54) = (   0.2712891   0.7677836   0.2464321  )
        55           Si  tau(  55) = (   0.0309600   0.8500811   0.1693192  )
        56           Si  tau(  56) = (   0.1126339   0.9405374   0.2474549  )
        57           Si  tau(  57) = (   0.0138125   0.6765287   0.3328760  )
        58           Si  tau(  58) = (   0.0980806   0.7647989   0.4113912  )
        59           Si  tau(  59) = (   0.1874162   0.8500922   0.3309509  )
        60           Si  tau(  60) = (   0.2718851   0.9365992   0.4111175  )
        61           Si  tau(  61) = (   0.1745124   0.6765464   0.4956995  )
        62           Si  tau(  62) = (   0.2580612   0.7634621   0.5764244  )
        63           Si  tau(  63) = (   0.0143779   0.8476602   0.4955710  )
        64           Si  tau(  64) = (   0.0989614   0.9341280   0.5755528  )
        65           Si  tau(  65) = (   1.0008678   0.6717950   0.6587463  )
        66           Si  tau(  66) = (   0.0836124   0.7590742   0.7396432  )
        67           Si  tau(  67) = (   0.1740754   0.8459803   0.6614729  )
        68           Si  tau(  68) = (   0.2601919   0.9335447   0.7400484  )
        69           Si  tau(  69) = (   0.1608125   0.6718821   0.8255771  )
        70           Si  tau(  70) = (   0.2459742   0.7572720   0.9073980  )
        71           Si  tau(  71) = (   0.9975293   0.8407081   0.8225442  )
        72           Si  tau(  72) = (   0.1031182   0.9133141   0.8871036  )
        73           Si  tau(  73) = (   0.3740454   1.0275327   0.0012751  )
        74           Si  tau(  74) = (   0.4179941   0.0849708   0.0817193  )
        75           Si  tau(  75) = (   0.5068943   0.1701134   0.0011797  )
        76           Si  tau(  76) = (   0.5906375   0.2563441   0.0820841  )
        77           Si  tau(  77) = (   0.5336644   1.0245544   0.1660254  )
        78           Si  tau(  78) = (   0.5773618   0.0819326   0.2469954  )
        79           Si  tau(  79) = (   0.3341704   0.1674483   0.1660906  )
        80           Si  tau(  80) = (   0.4181586   0.2537640   0.2467661  )
        81           Si  tau(  81) = (   0.3612596   1.0216538   0.3309301  )
        82           Si  tau(  82) = (   0.4049768   0.0795124   0.4112380  )
        83           Si  tau(  83) = (   0.4938916   0.1648489   0.3310151  )
        84           Si  tau(  84) = (   0.5785641   0.2507463   0.4114110  )
        85           Si  tau(  85) = (   0.5210323   1.0195885   0.4954643  )
        86           Si  tau(  86) = (   0.5656276   0.0767341   0.5755389  )
        87           Si  tau(  87) = (   0.3207341   0.1620552   0.4950957  )
        88           Si  tau(  88) = (   0.4052616   0.2482581   0.5754905  )
        89           Si  tau(  89) = (   0.3494911   1.0170604   0.6588906  )
        90           Si  tau(  90) = (   0.3932769   0.0743693   0.7397252  )
        91           Si  tau(  91) = (   0.4818490   0.1595873   0.6594509  )
        92           Si  tau(  92) = (   0.5657945   0.2457180   0.7402440  )
        93           Si  tau(  93) = (   0.5087011   1.0141652   0.8244891  )
        94           Si  tau(  94) = (   0.5525752   0.0716613   0.9050895  )
        95           Si  tau(  95) = (   0.3101010   0.1577220   0.8237627  )
        96           Si  tau(  96) = (   0.3936913   0.2436840   0.9049422  )
        97           Si  tau(  97) = (   0.3483025   0.3427798   0.0007193  )
        98           Si  tau(  98) = (   0.4316306   0.4281994   0.0819774  )
        99           Si  tau(  99) = (   0.5198389   0.5126587   0.0009953  )
       100           Si  tau( 100) = (   0.6032292   0.5979203   0.0824823  )
       101           Si  tau( 101) = (   0.5069801   0.3389375   0.1662250  )
       102           Si  tau( 102) = (   0.5915292   0.4247934   0.2467731  )
       103           Si  tau( 103) = (   0.3472370   0.5099159   0.1663278  )
       104           Si  tau( 104) = (   0.4312673   0.5965236   0.2466950  )
       105           Si  tau( 105) = (   0.3339610   0.3360532   0.3308886  )
       106           Si  tau( 106) = (   0.4183169   0.4224508   0.4112084  )
       107           Si  tau( 107) = (   0.5073547   0.5074667   0.3306801  )
       108           Si  tau( 108) = (   0.5915168   0.5938077   0.4111214  )
       109           Si  tau( 109) = (   0.4943577   0.3334380   0.4952557  )
       110           Si  tau( 110) = (   0.5784992   0.4197302   0.5757929  )
       111           Si  tau( 111) = (   0.3343878   0.5050493   0.4954761  )
       112           Si  tau( 112) = (   0.4183202   0.5914925   0.5760943  )
       113           Si  tau( 113) = (   0.3213694   0.3308269   0.6597563  )
       114           Si  tau( 114) = (   0.4054594   0.4171904   0.7402767  )
       115           Si  tau( 115) = (   0.4944401   0.5023319   0.6599342  )
       116           Si  tau( 116) = (   0.5786871   0.5884214   0.7405385  )
       117           Si  tau( 117) = (   0.4820505   0.3285670   0.8242954  )
       118           Si  tau( 118) = (   0.5658149   0.4144898   0.9052189  )
       119           Si  tau( 119) = (   0.3213487   0.4998175   0.8243003  )
       120           Si  tau( 120) = (   0.4060950   0.5854694   0.9047377  )
       121           Si  tau( 121) = (   0.3607397   0.6829794   0.0015060  )
       122           Si  tau( 122) = (   0.4445361   0.7700443   0.0815222  )
       123           Si  tau( 123) = (   0.5332718   0.8557032   0.0013175  )
       124           Si  tau( 124) = (   0.6174825   0.9419203   0.0818518  )
       125           Si  tau( 125) = (   0.5203459   0.6816884   0.1663782  )
       126           Si  tau( 126) = (   0.6051652   0.7682070   0.2462048  )
       127           Si  tau( 127) = (   0.3608392   0.8525801   0.1659859  )
       128           Si  tau( 128) = (   0.4449316   0.9391499   0.2464697  )
       129           Si  tau( 129) = (   0.3471804   0.6789166   0.3308254  )
       130           Si  tau( 130) = (   0.4314540   0.7650979   0.4112202  )
       131           Si  tau( 131) = (   0.5205812   0.8500575   0.3306761  )
       132           Si  tau( 132) = (   0.6040658   0.9360942   0.4120039  )
       133           Si  tau( 133) = (   0.5074594   0.6762292   0.4954000  )
       134           Si  tau( 134) = (   0.5917438   0.7623271   0.5759263  )
       135           Si  tau( 135) = (   0.3475809   0.8477574   0.4954741  )
       136           Si  tau( 136) = (   0.4325277   0.9339914   0.5751515  )
       137           Si  tau( 137) = (   0.3341848   0.6742680   0.6602356  )
       138           Si  tau( 138) = (   0.4181347   0.7606682   0.7409012  )
       139           Si  tau( 139) = (   0.5075957   0.8450070   0.6599342  )
       140           Si  tau( 140) = (   0.5919819   0.9310904   0.7402144  )
       141           Si  tau( 141) = (   0.4944098   0.6711320   0.8242954  )
       142           Si  tau( 142) = (   0.5785615   0.7565903   0.9054462  )
       143           Si  tau( 143) = (   0.3340445   0.8432989   0.8257352  )
       144           Si  tau( 144) = (   0.4198338   0.9291162   0.9051547  )
       145           Si  tau( 145) = (   0.7062817   1.0272170   0.0010747  )
       146           Si  tau( 146) = (   0.7494397   0.0862954   0.0805091  )
       147           Si  tau( 147) = (   0.8378123   0.1724176   0.0015218  )
       148           Si  tau( 148) = (   0.9243727   0.2567421   0.0808794  )
       149           Si  tau( 149) = (   0.8242483   0.0002668   0.1679248  )
       150           Si  tau( 150) = (   0.9129960   0.0827896   0.2464479  )
       151           Si  tau( 151) = (   0.6662212   0.1673033   0.1664740  )
       152           Si  tau( 152) = (   0.7515008   0.2532506   0.2462592  )
       153           Si  tau( 153) = (   0.6920975   1.0221124   0.3326180  )
       154           Si  tau( 154) = (   0.7383403   0.0792625   0.4111797  )
       155           Si  tau( 155) = (   0.8276769   0.1643969   0.3303313  )
       156           Si  tau( 156) = (   0.9117365   0.2508332   0.4108022  )
       157           Si  tau( 157) = (   0.8543651   1.0192268   0.4956253  )
       158           Si  tau( 158) = (   0.8986192   0.0769689   0.5757929  )
       159           Si  tau( 159) = (   0.6548793   0.1619639   0.4955255  )
       160           Si  tau( 160) = (   0.7391522   0.2481468   0.5760192  )
       161           Si  tau( 161) = (   0.6810829   1.0161950   0.6597978  )
       162           Si  tau( 162) = (   0.7247885   0.0745469   0.7396817  )
       163           Si  tau( 163) = (   0.8150804   0.1592893   0.6605854  )
       164           Si  tau( 164) = (   0.8993016   0.2445402   0.7423529  )
       165           Si  tau( 165) = (   0.8395803   1.0135009   0.8227992  )
       166           Si  tau( 166) = (   0.8793312   0.0743206   0.9027889  )
       167           Si  tau( 167) = (   0.6415879   0.1567170   0.8246561  )
       168           Si  tau( 168) = (   0.7248968   0.2441586   0.9046003  )
       169           Si  tau( 169) = (   0.6793975   0.3415748   0.0015086  )
       170           Si  tau( 170) = (   0.7642082   0.4274127   0.0817584  )
       171           Si  tau( 171) = (   0.8532087   0.5124352   0.0012717  )
       172           Si  tau( 172) = (   0.9373213   0.5986202   0.0820135  )
       173           Si  tau( 173) = (   0.8404630   0.3386551   0.1659374  )
       174           Si  tau( 174) = (   0.9246322   0.4248155   0.2466100  )
       175           Si  tau( 175) = (   0.6804642   0.5098326   0.1662626  )
       176           Si  tau( 176) = (   0.7647270   0.5966247   0.2463590  )
       177           Si  tau( 177) = (   0.6674917   0.3356421   0.3307374  )
       178           Si  tau( 178) = (   0.7514976   0.4220663   0.4111906  )
       179           Si  tau( 179) = (   0.8402877   0.5071356   0.3306040  )
       180           Si  tau( 180) = (   0.9242010   0.5922151   0.4124051  )
       181           Si  tau( 181) = (   0.8277982   0.3331505   0.4951579  )
       182           Si  tau( 182) = (   0.9120574   0.4185212   0.5762564  )
       183           Si  tau( 183) = (   0.6674625   0.5047502   0.4952044  )
       184           Si  tau( 184) = (   0.7516627   0.5909957   0.5757020  )
       185           Si  tau( 185) = (   0.6547044   0.3306341   0.6597177  )
       186           Si  tau( 186) = (   0.7388242   0.4167890   0.7401591  )
       187           Si  tau( 187) = (   0.8276322   0.5014829   0.6593719  )
       188           Si  tau( 188) = (   0.9118538   0.5873343   0.7397440  )
       189           Si  tau( 189) = (   0.8149383   0.3283875   0.8247737  )
       190           Si  tau( 190) = (   0.8993094   0.4144702   0.9051596  )
       191           Si  tau( 191) = (   0.6546115   0.4990149   0.8243754  )
       192           Si  tau( 192) = (   0.7383928   0.5847649   0.9052318  )
       193           Si  tau( 193) = (   0.6910983   0.6818305   0.0010997  )
       194           Si  tau( 194) = (   0.7756896   0.7685832   0.0797412  )
       195           Si  tau( 195) = (   0.8242198   0.8358105   0.9841176  )
       196           Si  tau( 196) = (   0.9292399   0.9213024   0.1006062  )
       197           Si  tau( 197) = (   0.8538817   0.6820857   0.1657912  )
       198           Si  tau( 198) = (   0.9397516   0.7662494   0.2482416  )
       199           Si  tau( 199) = (   0.6946549   0.8535123   0.1655293  )
       200           Si  tau( 200) = (   0.7766314   0.9417119   0.2476101  )
       201           Si  tau( 201) = (   0.6805887   0.6789401   0.3305793  )
       202           Si  tau( 202) = (   0.7651107   0.7654796   0.4105136  )
       203           Si  tau( 203) = (   0.8542853   0.8510198   0.3296879  )
       204           Si  tau( 204) = (   0.9381511   0.9365066   0.4114989  )
       205           Si  tau( 205) = (   0.8404689   0.6762444   0.4952192  )
       206           Si  tau( 206) = (   0.9253098   0.7619794   0.5755409  )
       207           Si  tau( 207) = (   0.6808884   0.8473097   0.4954208  )
       208           Si  tau( 208) = (   0.7651310   0.9337823   0.5756150  )
       209           Si  tau( 209) = (   0.6676614   0.6733376   0.6600024  )
       210           Si  tau( 210) = (   0.7519833   0.7596173   0.7403587  )
       211           Si  tau( 211) = (   0.8410730   0.8445298   0.6595409  )
       212           Si  tau( 212) = (   0.9244651   0.9321118   0.7392015  )
       213           Si  tau( 213) = (   0.8271232   0.6691981   0.8237706  )
       214           Si  tau( 214) = (   0.9117607   0.7543794   0.9039046  )
       215           Si  tau( 215) = (   0.6672909   0.8416115   0.8244604  )
       216           H   tau( 216) = (   0.0577544   0.0344702   0.0197840  )
       217           H   tau( 217) = (   0.9169134   0.0145633   0.9635544  )
       218           H   tau( 218) = (   0.8720812   0.8682335   0.1530341  )
       219           H   tau( 219) = (   0.1572449   0.8594851   0.8322862  )

   Crystallographic axes

     site n.     atom                  positions (cryst. coord.)
         1           Si  tau(   1) = (  0.7488810  0.9174800  0.9142040  )
         2           Si  tau(   2) = (  0.0948778  0.0896924  0.0844559  )
         3           Si  tau(   3) = (  0.1719920  0.1701190  0.0005681  )
         4           Si  tau(   4) = (  0.2537160  0.2531420  0.0837510  )
         5           Si  tau(   5) = (  0.1689330  0.9987030  0.1697490  )
         6           Si  tau(   6) = (  0.2518780  0.0842234  0.2503310  )
         7           Si  tau(   7) = (  0.0002426  0.1638470  0.1644070  )
         8           Si  tau(   8) = (  0.0838139  0.2491850  0.2473740  )
         9           Si  tau(   9) = (  0.9999640  0.9983470  0.3351440  )
        10           Si  tau(  10) = (  0.0841479  0.0837004  0.4158900  )
        11           Si  tau(  11) = (  0.1664600  0.1653670  0.3341890  )
        12           Si  tau(  12) = (  0.2504350  0.2503990  0.4159010  )
        13           Si  tau(  13) = (  0.1668660  0.9984890  0.5010020  )
        14           Si  tau(  14) = (  0.2508780  0.0836368  0.5824290  )
        15           Si  tau(  15) = (  0.0001426  0.1652520  0.5011110  )
        16           Si  tau(  16) = (  0.0840552  0.2505640  0.5825110  )
        17           Si  tau(  17) = (  0.0000781  0.9985770  0.6673840  )
        18           Si  tau(  18) = (  0.0830577  0.0850486  0.7484370  )
        19           Si  tau(  19) = (  0.1668330  0.1655750  0.6674980  )
        20           Si  tau(  20) = (  0.2508690  0.2504890  0.7491020  )
        21           Si  tau(  21) = (  0.1698020  0.0038889  0.8326300  )
        22           Si  tau(  22) = (  0.2537380  0.0860040  0.9165920  )
        23           Si  tau(  23) = (  0.0005668  0.1641100  0.8372670  )
        24           Si  tau(  24) = (  0.0846153  0.2510900  0.9163530  )
        25           Si  tau(  25) = (  0.0002708  0.3321880  0.0012000  )
        26           Si  tau(  26) = (  0.0842121  0.4170950  0.0827185  )
        27           Si  tau(  27) = (  0.1667340  0.4984350  0.0012435  )
        28           Si  tau(  28) = (  0.2511110  0.5828770  0.0828897  )
        29           Si  tau(  29) = (  0.1668740  0.3322780  0.1680430  )
        30           Si  tau(  30) = (  0.2508470  0.4170010  0.2498100  )
        31           Si  tau(  31) = (  0.0000096  0.4981920  0.1681090  )
        32           Si  tau(  32) = (  0.0839504  0.5828080  0.2501040  )
        33           Si  tau(  33) = (  0.0004097  0.3308900  0.3335580  )
        34           Si  tau(  34) = (  0.0839717  0.4161610  0.4154770  )
        35           Si  tau(  35) = (  0.1669020  0.4981750  0.3351340  )
        36           Si  tau(  36) = (  0.2506810  0.5837130  0.4162990  )
        37           Si  tau(  37) = (  0.1667430  0.3319900  0.5012860  )
        38           Si  tau(  38) = (  0.2508150  0.4171070  0.5826540  )
        39           Si  tau(  39) = (  0.0000901  0.4969250  0.5014420  )
        40           Si  tau(  40) = (  0.0842620  0.5826400  0.5817420  )
        41           Si  tau(  41) = (  0.0000380  0.3309200  0.6688770  )
        42           Si  tau(  42) = (  0.0840835  0.4170930  0.7490060  )
        43           Si  tau(  43) = (  0.1668970  0.4986510  0.6679380  )
        44           Si  tau(  44) = (  0.2501670  0.5844320  0.7496660  )
        45           Si  tau(  45) = (  0.1668710  0.3322320  0.8341860  )
        46           Si  tau(  46) = (  0.2508550  0.4172660  0.9157940  )
        47           Si  tau(  47) = (  0.9999510  0.4983080  0.8344060  )
        48           Si  tau(  48) = (  0.0837439  0.5833830  0.9161240  )
        49           Si  tau(  49) = (  0.9996200  0.6645800  0.0015309  )
        50           Si  tau(  50) = (  0.0847363  0.7481710  0.0831961  )
        51           Si  tau(  51) = (  0.1677090  0.8315570  0.0052642  )
        52           Si  tau(  52) = (  0.2519960  0.9178700  0.0838769  )
        53           Si  tau(  53) = (  0.1672010  0.6638820  0.1687000  )
        54           Si  tau(  54) = (  0.2506610  0.7501210  0.2493660  )
        55           Si  tau(  55) = (  0.0041966  0.8289110  0.1713350  )
        56           Si  tau(  56) = (  0.0853015  0.9180520  0.2504010  )
        57           Si  tau(  57) = (  0.0000230  0.6627700  0.3368390  )
        58           Si  tau(  58) = (  0.0838217  0.7497920  0.4162890  )
        59           Si  tau(  59) = (  0.1667790  0.8314420  0.3348910  )
        60           Si  tau(  60) = (  0.2509100  0.9167760  0.4160120  )
        61           Si  tau(  61) = (  0.1668940  0.6653260  0.5016010  )
        62           Si  tau(  62) = (  0.2501100  0.7510660  0.5832870  )
        63           Si  tau(  63) = (  0.0000755  0.8316450  0.5014710  )
        64           Si  tau(  64) = (  0.0843156  0.9169380  0.5824050  )
        65           Si  tau(  65) = (  0.9996150  0.6632500  0.6665890  )
        66           Si  tau(  66) = (  0.0820192  0.7493460  0.7484490  )
        67           Si  tau(  67) = (  0.1661270  0.8325990  0.6693480  )
        68           Si  tau(  68) = (  0.2518040  0.9189360  0.7488590  )
        69           Si  tau(  69) = (  0.1658800  0.6659360  0.8354060  )
        70           Si  tau(  70) = (  0.2508100  0.7502100  0.9182010  )
        71           Si  tau(  71) = (  0.9958920  0.8299860  0.8323370  )
        72           Si  tau(  72) = (  0.1010940  0.9015650  0.8976650  )
        73           Si  tau(  73) = (  0.3339860  0.9987720  0.0012903  )
        74           Si  tau(  74) = (  0.4177750  0.0838650  0.0826922  )
        75           Si  tau(  75) = (  0.5002990  0.1653670  0.0011938  )
        76           Si  tau(  76) = (  0.5837430  0.2504440  0.0830613  )
        77           Si  tau(  77) = (  0.4999660  0.9984460  0.1680020  )
        78           Si  tau(  78) = (  0.5835260  0.0834890  0.2499360  )
        79           Si  tau(  79) = (  0.3339300  0.1653480  0.1680680  )
        80           Si  tau(  80) = (  0.4176070  0.2505040  0.2497040  )
        81           Si  tau(  81) = (  0.3339250  0.9981980  0.3348700  )
        82           Si  tau(  82) = (  0.4174610  0.0836976  0.4161340  )
        83           Si  tau(  83) = (  0.5000040  0.1653930  0.3349560  )
        84           Si  tau(  84) = (  0.5843710  0.2501380  0.4163090  )
        85           Si  tau(  85) = (  0.5000150  0.9987560  0.5013630  )
        86           Si  tau(  86) = (  0.5844480  0.0835590  0.5823910  )
        87           Si  tau(  87) = (  0.3331750  0.1652360  0.5009900  )
        88           Si  tau(  88) = (  0.4173850  0.2502780  0.5823420  )
        89           Si  tau(  89) = (  0.3347670  0.9988470  0.6667350  )
        90           Si  tau(  90) = (  0.4184130  0.0838206  0.7485320  )
        91           Si  tau(  91) = (  0.5006160  0.1654000  0.6673020  )
        92           Si  tau(  92) = (  0.5842620  0.2503780  0.7490570  )
        93           Si  tau(  93) = (  0.5003670  0.9986150  0.8343050  )
        94           Si  tau(  94) = (  0.5840850  0.0837669  0.9158650  )
        95           Si  tau(  95) = (  0.3351690  0.1661490  0.8335700  )
        96           Si  tau(  96) = (  0.4184810  0.2509690  0.9157160  )
        97           Si  tau(  97) = (  0.3349500  0.3331900  0.0007278  )
        98           Si  tau(  98) = (  0.4180240  0.4174840  0.0829534  )
        99           Si  tau(  99) = (  0.4998660  0.4983150  0.0010072  )
       100           Si  tau( 100) = (  0.5830170  0.5824590  0.0834643  )
       101           Si  tau( 101) = (  0.5000510  0.3320360  0.1682040  )
       102           Si  tau( 102) = (  0.5843020  0.4167430  0.2497110  )
       103           Si  tau( 103) = (  0.3336380  0.4982270  0.1683080  )
       104           Si  tau( 104) = (  0.4173340  0.5836620  0.2496320  )
       105           Si  tau( 105) = (  0.3333860  0.3318000  0.3348280  )
       106           Si  tau( 106) = (  0.4174140  0.4170300  0.4161040  )
       107           Si  tau( 107) = (  0.5000810  0.4984090  0.3346170  )
       108           Si  tau( 108) = (  0.5839220  0.5835860  0.4160160  )
       109           Si  tau( 109) = (  0.5001150  0.3318210  0.5011520  )
       110           Si  tau( 110) = (  0.5839410  0.4169520  0.5826480  )
       111           Si  tau( 111) = (  0.3334550  0.4986290  0.5013750  )
       112           Si  tau( 112) = (  0.4170690  0.5839080  0.5829530  )
       113           Si  tau( 113) = (  0.3334640  0.3318480  0.6676110  )
       114           Si  tau( 114) = (  0.4172350  0.4170480  0.7490900  )
       115           Si  tau( 115) = (  0.4998470  0.4985520  0.6677910  )
       116           Si  tau( 116) = (  0.5837890  0.5834870  0.7493550  )
       117           Si  tau( 117) = (  0.5004700  0.3322170  0.8341090  )
       118           Si  tau( 118) = (  0.5839480  0.4169950  0.9159960  )
       119           Si  tau( 119) = (  0.3330840  0.4986710  0.8341140  )
       120           Si  tau( 120) = (  0.4175360  0.5831780  0.9155090  )
       121           Si  tau( 121) = (  0.3341380  0.6638730  0.0015239  )
       122           Si  tau( 122) = (  0.4175690  0.7497470  0.0824928  )
       123           Si  tau( 123) = (  0.4999210  0.8317560  0.0013332  )
       124           Si  tau( 124) = (  0.5838190  0.9168140  0.0828263  )
       125           Si  tau( 125) = (  0.5000440  0.6651890  0.1683590  )
       126           Si  tau( 126) = (  0.5845120  0.7505290  0.2491360  )
       127           Si  tau( 127) = (  0.3338520  0.8312880  0.1679620  )
       128           Si  tau( 128) = (  0.4176160  0.9166880  0.2494040  )
       129           Si  tau( 129) = (  0.3332200  0.6650590  0.3347640  )
       130           Si  tau( 130) = (  0.4171770  0.7500800  0.4161160  )
       131           Si  tau( 131) = (  0.4999350  0.8314040  0.3346130  )
       132           Si  tau( 132) = (  0.5831440  0.9162990  0.4169090  )
       133           Si  tau( 133) = (  0.4998420  0.6650130  0.5012980  )
       134           Si  tau( 134) = (  0.5838180  0.7499550  0.5827830  )
       135           Si  tau( 135) = (  0.3332710  0.8317380  0.5013730  )
       136           Si  tau( 136) = (  0.4178720  0.9167990  0.5819990  )
       137           Si  tau( 137) = (  0.3328920  0.6656770  0.6680960  )
       138           Si  tau( 138) = (  0.4165270  0.7509150  0.7497220  )
       139           Si  tau( 139) = (  0.4996270  0.8316290  0.6677910  )
       140           Si  tau( 140) = (  0.5836960  0.9165530  0.7490270  )
       141           Si  tau( 141) = (  0.4994580  0.6651870  0.8341090  )
       142           Si  tau( 142) = (  0.5833500  0.7495170  0.9162260  )
       143           Si  tau( 143) = (  0.3324270  0.8325540  0.8355660  )
       144           Si  tau( 144) = (  0.4178770  0.9172060  0.9159310  )
       145           Si  tau( 145) = (  0.6662270  0.9984620  0.0010875  )
       146           Si  tau( 146) = (  0.7491230  0.0851337  0.0814676  )
       147           Si  tau( 147) = (  0.8311400  0.1676120  0.0015399  )
       148           Si  tau( 148) = (  0.9174170  0.2508120  0.0818423  )
       149           Si  tau( 149) = (  0.8306030  0.0028777  0.1699240  )
       150           Si  tau( 150) = (  0.9191060  0.0843135  0.2493820  )
       151           Si  tau( 151) = (  0.6660010  0.1652130  0.1684560  )
       152           Si  tau( 152) = (  0.7509500  0.2499970  0.2491910  )
       153           Si  tau( 153) = (  0.6648090  0.9986700  0.3365780  )
       154           Si  tau( 154) = (  0.7508320  0.0834538  0.4160750  )
       155           Si  tau( 155) = (  0.8337810  0.1649430  0.3342640  )
       156           Si  tau( 156) = (  0.9175170  0.2502130  0.4156930  )
       157           Si  tau( 157) = (  0.8333680  0.9984070  0.5015260  )
       158           Si  tau( 158) = (  0.9174400  0.0837912  0.5826480  )
       159           Si  tau( 159) = (  0.6673400  0.1651540  0.5014250  )
       160           Si  tau( 160) = (  0.7513000  0.2501780  0.5828770  )
       161           Si  tau( 161) = (  0.6664270  0.9980200  0.6676530  )
       162           Si  tau( 162) = (  0.7499160  0.0839925  0.7484880  )
       163           Si  tau( 163) = (  0.8339020  0.1651280  0.6684500  )
       164           Si  tau( 164) = (  0.9178950  0.2492660  0.7511910  )
       165           Si  tau( 165) = (  0.8312080  0.9979430  0.8325950  )
       166           Si  tau( 166) = (  0.9106500  0.0863158  0.9135370  )
       167           Si  tau( 167) = (  0.6667290  0.1651860  0.8344740  )
       168           Si  tau( 168) = (  0.7496550  0.2514250  0.9153700  )
       169           Si  tau( 169) = (  0.6661220  0.3320310  0.0015265  )
       170           Si  tau( 170) = (  0.7506240  0.4167160  0.0827318  )
       171           Si  tau( 171) = (  0.8332550  0.4981020  0.0012868  )
       172           Si  tau( 172) = (  0.9170640  0.5831320  0.0829899  )
       173           Si  tau( 173) = (  0.8335340  0.3317570  0.1679130  )
       174           Si  tau( 174) = (  0.9173980  0.4167620  0.2495460  )
       175           Si  tau( 175) = (  0.6668660  0.4981450  0.1682420  )
       176           Si  tau( 176) = (  0.7507770  0.5837550  0.2492920  )
       177           Si  tau( 177) = (  0.6669270  0.3313980  0.3346750  )
       178           Si  tau( 178) = (  0.7506090  0.4166560  0.4160860  )
       179           Si  tau( 179) = (  0.8330240  0.4980860  0.3345400  )
       180           Si  tau( 180) = (  0.9167170  0.5820580  0.4173150  )
       181           Si  tau( 181) = (  0.8335630  0.3315400  0.5010530  )
       182           Si  tau( 182) = (  0.9175640  0.4157840  0.5831170  )
       183           Si  tau( 183) = (  0.6665310  0.4983340  0.5011000  )
       184           Si  tau( 184) = (  0.7504160  0.5834190  0.5825560  )
       185           Si  tau( 185) = (  0.6668050  0.3316600  0.6675720  )
       186           Si  tau( 186) = (  0.7506110  0.4166560  0.7489710  )
       187           Si  tau( 187) = (  0.8330510  0.4977180  0.6672220  )
       188           Si  tau( 188) = (  0.9169680  0.5824180  0.7485510  )
       189           Si  tau( 189) = (  0.8333830  0.3320500  0.8345930  )
       190           Si  tau( 190) = (  0.9174410  0.4169750  0.9159360  )
       191           Si  tau( 191) = (  0.6663810  0.4978920  0.8341900  )
       192           Si  tau( 192) = (  0.7498800  0.5825010  0.9160090  )
       193           Si  tau( 193) = (  0.6645260  0.6627500  0.0011128  )
       194           Si  tau( 194) = (  0.7487120  0.7482990  0.0806906  )
       195           Si  tau( 195) = (  0.8288980  0.8277450  0.9958340  )
       196           Si  tau( 196) = (  0.8970920  0.8970660  0.1018040  )
       197           Si  tau( 197) = (  0.8335420  0.6655660  0.1677650  )
       198           Si  tau( 198) = (  0.9192520  0.7486580  0.2511970  )
       199           Si  tau( 199) = (  0.6676140  0.8321870  0.1675000  )
       200           Si  tau( 200) = (  0.7492590  0.9191960  0.2505580  )
       201           Si  tau( 201) = (  0.6666180  0.6650780  0.3345150  )
       202           Si  tau( 202) = (  0.7507920  0.7504400  0.4154010  )
       203           Si  tau( 203) = (  0.8335640  0.8323240  0.3336130  )
       204           Si  tau( 204) = (  0.9171940  0.9166920  0.4163980  )
       205           Si  tau( 205) = (  0.8328440  0.6650250  0.5011150  )
       206           Si  tau( 206) = (  0.9173830  0.7496110  0.5823930  )
       207           Si  tau( 207) = (  0.6665940  0.8313020  0.5013190  )
       208           Si  tau( 208) = (  0.7505010  0.9166030  0.5824680  )
       209           Si  tau( 209) = (  0.6663960  0.6647690  0.6678600  )
       210           Si  tau( 210) = (  0.7503960  0.7498850  0.7491730  )
       211           Si  tau( 211) = (  0.8331080  0.8311590  0.6673930  )
       212           Si  tau( 212) = (  0.9161010  0.9175300  0.7480020  )
       213           Si  tau( 213) = (  0.8322270  0.6632990  0.8335780  )
       214           Si  tau( 214) = (  0.9165770  0.7473440  0.9146660  )
       215           Si  tau( 215) = (  0.6656910  0.8308940  0.8342760  )
       216           H   tau( 216) = (  0.0571588  0.0338132  0.0200195  )
       217           H   tau( 217) = (  0.9528680  0.0291798  0.9750260  )
       218           H   tau( 218) = (  0.8439920  0.8463010  0.1548560  )
       219           H   tau( 219) = (  0.1552440  0.8483890  0.8421950  )

     number of k points=     8  Marzari-Vanderbilt smearing, width (Ry)=  0.0500
                       cart. coord. in units 2pi/alat
        k(    1) = (   0.0000000   0.0000000   0.0000000), wk =   0.2500000
        k(    2) = (   0.0000000   0.0000000  -0.5059527), wk =   0.2500000
        k(    3) = (   0.0000000  -0.4859953  -0.0077963), wk =   0.2500000
        k(    4) = (   0.0000000  -0.4859953  -0.5137491), wk =   0.2500000
        k(    5) = (  -0.5000000   0.0195165  -0.0189523), wk =   0.2500000
        k(    6) = (  -0.5000000   0.0195165  -0.5249050), wk =   0.2500000
        k(    7) = (  -0.5000000  -0.4664787  -0.0267486), wk =   0.2500000
        k(    8) = (  -0.5000000  -0.4664787  -0.5327013), wk =   0.2500000

                       cryst. coord.
        k(    1) = (   0.0000000   0.0000000   0.0000000), wk =   0.2500000
        k(    2) = (   0.0000000   0.0000000  -0.5000000), wk =   0.2500000
        k(    3) = (   0.0000000  -0.5000000   0.0000000), wk =   0.2500000
        k(    4) = (   0.0000000  -0.5000000  -0.5000000), wk =   0.2500000
        k(    5) = (  -0.5000000   0.0000000   0.0000000), wk =   0.2500000
        k(    6) = (  -0.5000000   0.0000000  -0.5000000), wk =   0.2500000
        k(    7) = (  -0.5000000  -0.5000000   0.0000000), wk =   0.2500000
        k(    8) = (  -0.5000000  -0.5000000  -0.5000000), wk =   0.2500000

     Dense  grid:  1088301 G-vectors     FFT dimensions: ( 128, 135, 125)

     Dynamical RAM for                 wfc:     134.40 MB

     Dynamical RAM for     wfc (w. buffer):    1209.60 MB

     Dynamical RAM for           str. fact:       4.15 MB

     Dynamical RAM for           local pot:       0.00 MB

     Dynamical RAM for          nlocal pot:     278.92 MB

     Dynamical RAM for                qrad:       1.74 MB

     Dynamical RAM for          rho,v,vnew:      12.56 MB

     Dynamical RAM for               rhoin:       4.19 MB

     Dynamical RAM for            rho*nmix:      33.21 MB

     Dynamical RAM for           G-vectors:       8.82 MB

     Dynamical RAM for          h,s,v(r/c):     196.53 MB

     Dynamical RAM for          <psi|beta>:       8.50 MB

     Dynamical RAM for                 psi:     537.60 MB

     Dynamical RAM for                hpsi:     537.60 MB

     Dynamical RAM for      wfcinit/wfcrot:     465.44 MB

     Estimated static dynamical RAM per process >       1.53 GB

     Estimated max dynamical RAM per process >       2.78 GB

     Estimated total dynamical RAM >      22.27 GB

     Initial potential from superposition of free atoms

     starting charge  863.87972, renormalised to  864.00000
     Starting wfc are  864 randomized atomic wfcs

     total cpu time spent up to now is      246.2 secs

     Self-consistent Calculation

     iteration #  1     ecut=    42.00 Ry     beta= 0.30
     Davidson diagonalization with overlap
     ethr =  1.00E-02,  avg # of iterations =  3.0

     Threshold (ethr) on eigenvalues was too large:
     Diagonalizing with lowered threshold

     Davidson diagonalization with overlap
     ethr =  7.47E-04,  avg # of iterations =  1.0

     total cpu time spent up to now is     1194.0 secs

     total energy              =   -1697.89411008 Ry
     Harris-Foulkes estimate   =   -1698.84874259 Ry
     estimated scf accuracy    <       6.31750395 Ry

     iteration #  2     ecut=    42.00 Ry     beta= 0.30
     Davidson diagonalization with overlap
     ethr =  7.31E-04,  avg # of iterations =  1.0

     total cpu time spent up to now is     1550.8 secs

     total energy              =   -1697.36249688 Ry
     Harris-Foulkes estimate   =   -1697.97617964 Ry
     estimated scf accuracy    <       2.63771661 Ry

     iteration #  3     ecut=    42.00 Ry     beta= 0.30
     Davidson diagonalization with overlap
     ethr =  3.05E-04,  avg # of iterations = 10.4

     total cpu time spent up to now is     2179.6 secs

     total energy              =   -1697.44401728 Ry
     Harris-Foulkes estimate   =   -1697.57410300 Ry
     estimated scf accuracy    <       0.57243440 Ry

     iteration #  4     ecut=    42.00 Ry     beta= 0.30
     Davidson diagonalization with overlap
     ethr =  6.63E-05,  avg # of iterations =  9.1

     total cpu time spent up to now is     2923.5 secs

     total energy              =   -1697.51524286 Ry
     Harris-Foulkes estimate   =   -1697.54482626 Ry
     estimated scf accuracy    <       0.16011468 Ry

     iteration #  5     ecut=    42.00 Ry     beta= 0.30
     Davidson diagonalization with overlap
     ethr =  1.85E-05,  avg # of iterations =  7.4

     total cpu time spent up to now is     3507.2 secs

     total energy              =   -1697.52718182 Ry
     Harris-Foulkes estimate   =   -1697.53336229 Ry
     estimated scf accuracy    <       0.03185545 Ry

     iteration #  6     ecut=    42.00 Ry     beta= 0.30
     Davidson diagonalization with overlap
     c_bands:  3 eigenvalues not converged
     ethr =  3.69E-06,  avg # of iterations = 12.0

     total cpu time spent up to now is     4244.5 secs

     total energy              =   -1697.52970157 Ry
     Harris-Foulkes estimate   =   -1697.53184414 Ry
     estimated scf accuracy    <       0.01265056 Ry

     iteration #  7     ecut=    42.00 Ry     beta= 0.30
     Davidson diagonalization with overlap
     ethr =  1.46E-06,  avg # of iterations =  9.5

     total cpu time spent up to now is     4874.6 secs

     total energy              =   -1697.53068221 Ry
     Harris-Foulkes estimate   =   -1697.53157475 Ry
     estimated scf accuracy    <       0.00468857 Ry

     iteration #  8     ecut=    42.00 Ry     beta= 0.30
     Davidson diagonalization with overlap
     ethr =  5.43E-07,  avg # of iterations =  2.8

     total cpu time spent up to now is     5316.8 secs

     total energy              =   -1697.53118832 Ry
     Harris-Foulkes estimate   =   -1697.53131295 Ry
     estimated scf accuracy    <       0.00076717 Ry

     iteration #  9     ecut=    42.00 Ry     beta= 0.30
     Davidson diagonalization with overlap
     ethr =  8.88E-08,  avg # of iterations =  3.1

     total cpu time spent up to now is     5770.5 secs

     total energy              =   -1697.53126761 Ry
     Harris-Foulkes estimate   =   -1697.53129168 Ry
     estimated scf accuracy    <       0.00013764 Ry

     iteration # 10     ecut=    42.00 Ry     beta= 0.30
     Davidson diagonalization with overlap
     ethr =  1.59E-08,  avg # of iterations =  2.9

     total cpu time spent up to now is     6244.9 secs

     total energy              =   -1697.53128421 Ry
     Harris-Foulkes estimate   =   -1697.53129011 Ry
     estimated scf accuracy    <       0.00003837 Ry

     iteration # 11     ecut=    42.00 Ry     beta= 0.30
     Davidson diagonalization with overlap
     ethr =  4.44E-09,  avg # of iterations =  3.4

     total cpu time spent up to now is     6703.7 secs

     total energy              =   -1697.53128778 Ry
     Harris-Foulkes estimate   =   -1697.53129237 Ry
     estimated scf accuracy    <       0.00002791 Ry

     iteration # 12     ecut=    42.00 Ry     beta= 0.30
     Davidson diagonalization with overlap
     ethr =  3.23E-09,  avg # of iterations =  2.8

     total cpu time spent up to now is     7133.0 secs

     total energy              =   -1697.53129166 Ry
     Harris-Foulkes estimate   =   -1697.53129196 Ry
     estimated scf accuracy    <       0.00000612 Ry

     iteration # 13     ecut=    42.00 Ry     beta= 0.30
     Davidson diagonalization with overlap
     ethr =  7.08E-10,  avg # of iterations =  3.2

     total cpu time spent up to now is     7584.8 secs

     total energy              =   -1697.53129273 Ry
     Harris-Foulkes estimate   =   -1697.53129251 Ry
     estimated scf accuracy    <       0.00000105 Ry

     iteration # 14     ecut=    42.00 Ry     beta= 0.30
     Davidson diagonalization with overlap
     ethr =  1.21E-10,  avg # of iterations =  3.5

     total cpu time spent up to now is     8081.5 secs

     total energy              =   -1697.53129306 Ry
     Harris-Foulkes estimate   =   -1697.53129292 Ry
     estimated scf accuracy    <       0.00000054 Ry

     iteration # 15     ecut=    42.00 Ry     beta= 0.30
     Davidson diagonalization with overlap
     ethr =  6.21E-11,  avg # of iterations =  3.0

     total cpu time spent up to now is     8528.7 secs

     total energy              =   -1697.53129325 Ry
     Harris-Foulkes estimate   =   -1697.53129313 Ry
     estimated scf accuracy    <       0.00000021 Ry

     iteration # 16     ecut=    42.00 Ry     beta= 0.30
     Davidson diagonalization with overlap
     ethr =  2.46E-11,  avg # of iterations =  3.1

     total cpu time spent up to now is     8967.9 secs

     total energy              =   -1697.53129335 Ry
     Harris-Foulkes estimate   =   -1697.53129327 Ry
     estimated scf accuracy    <       0.00000008 Ry

     iteration # 17     ecut=    42.00 Ry     beta= 0.30
     Davidson diagonalization with overlap
     ethr =  9.62E-12,  avg # of iterations =  3.0

     total cpu time spent up to now is     9450.3 secs

     total energy              =   -1697.53129338 Ry
     Harris-Foulkes estimate   =   -1697.53129337 Ry
     estimated scf accuracy    <       0.00000003 Ry

     iteration # 18     ecut=    42.00 Ry     beta= 0.30
     Davidson diagonalization with overlap
     ethr =  2.99E-12,  avg # of iterations =  3.4

     total cpu time spent up to now is     9962.3 secs

     total energy              =   -1697.53129339 Ry
     Harris-Foulkes estimate   =   -1697.53129339 Ry
     estimated scf accuracy    <       0.00000002 Ry

     iteration # 19     ecut=    42.00 Ry     beta= 0.30
     Davidson diagonalization with overlap
     ethr =  1.97E-12,  avg # of iterations =  3.4

     total cpu time spent up to now is    10419.2 secs

     End of self-consistent calculation

          k = 0.0000 0.0000 0.0000 (136067 PWs)   bands (ev):

    -5.8345  -5.4009  -5.3866  -5.3629  -5.3469  -5.3392  -5.3244  -5.0166
    -4.9691  -4.9363  -4.9299  -4.9124  -4.9003  -4.8843  -4.8733  -4.8663
    -4.8460  -4.8284  -4.8113  -4.5960  -4.5644  -4.4843  -4.4632  -4.4436
    -4.4241  -4.4104  -4.3769  -4.0485  -4.0039  -3.9848  -3.9152  -3.9069
    -3.8737  -3.7446  -3.7244  -3.6856  -3.6773  -3.6463  -3.6368  -3.6311
    -3.6228  -3.6156  -3.5975  -3.5956  -3.5833  -3.5803  -3.5743  -3.5694
    -3.5605  -3.5547  -3.5475  -3.5406  -3.5350  -3.5218  -3.5150  -3.5010
    -3.4945  -3.4801  -3.4774  -3.4612  -3.4451  -3.4434  -3.4045  -3.3866
    -3.3686  -3.3544  -3.3449  -3.3389  -3.3372  -3.3319  -3.3289  -3.3118
    -3.3009  -3.2975  -3.2942  -3.2881  -3.2508  -3.2345  -3.2290  -3.2171
    -2.9660  -2.7481  -2.7340  -2.7243  -2.7036  -2.6618  -2.6450  -2.5460
    -2.5298  -2.4876  -2.4769  -2.4730  -2.3982  -1.9302  -1.8273  -1.8193
    -1.8028  -1.7978  -1.7805  -1.7201  -1.7051  -1.6998  -1.6959  -1.6955
    -1.6891  -1.6697  -1.6649  -1.6518  -1.6439  -1.6399  -1.6109  -1.5976
    -1.5790  -1.5680  -1.5345  -1.5129  -1.4961  -1.4809  -1.4634  -1.4498
    -1.4406  -1.4374  -1.2704  -0.8836  -0.8239  -0.7865  -0.7767  -0.7660
    -0.6816  -0.6693  -0.6616  -0.6494  -0.6409  -0.6225  -0.6094  -0.6045
    -0.6014  -0.5908  -0.5815  -0.5762  -0.5696  -0.5556  -0.5389  -0.5311
    -0.5219  -0.5060  -0.4952  -0.4917  -0.4799  -0.4751  -0.4700  -0.4586
    -0.4453  -0.4390  -0.4296  -0.4249  -0.4012  -0.3560  -0.0743   0.2925
     0.3196   0.3485   0.3573   0.3599   0.3647   0.3687   0.3739   0.3797
     0.3845   0.3858   0.3918   0.3983   0.4072   0.4216   0.4369   0.4422
     0.4538   0.4588   0.4673   0.4759   0.4827   0.4891   0.5127   0.5677
     0.7048   0.7501   0.7846   0.8061   0.8217   0.8703   0.8875   0.8960
     1.0495   1.0761   1.1179   1.1403   1.4126   1.5848   1.6119   1.6308
     1.6577   1.6614   1.7030   1.7187   1.7269   1.7359   1.7447   1.7700
     1.7858   1.9957   2.0201   2.1713   2.2050   2.2310   2.2336   2.2609
     2.2752   2.2910   2.3039   2.3271   2.3372   2.3553   2.3617   2.3662
     2.3766   2.3837   2.3898   2.3960   2.3996   2.4042   2.4056   2.4100
     2.4136   2.4176   2.4217   2.4348   2.4371   2.4436   2.4520   2.4557
     2.4667   2.4772   2.4841   2.4921   2.4987   2.5091   2.5164   2.5249
     2.5282   2.5343   2.5418   2.5481   2.5634   2.5843   2.5886   2.5931
     2.6014   2.6159   2.6180   2.6275   2.6400   2.6496   2.6553   2.6650
     2.6739   2.6951   2.7180   2.7684   2.8244   2.8898   3.0205   3.0516
     3.0570   3.0845   3.0998   3.1399   3.1563   3.1774   3.1799   3.2030
     3.2258   3.2548   3.2826   3.2864   3.2987   3.3116   3.3122   3.3237
     3.3251   3.3297   3.3307   3.3359   3.3420   3.3644   3.3806   3.4213
     3.4662   3.4776   3.5047   3.5236   3.5328   3.5373   3.5383   3.5569
     3.5852   3.5987   3.6058   3.6162   3.6240   3.6331   3.6518   3.6607
     3.6680   3.6705   3.6804   3.6915   3.6968   3.7086   3.7131   3.7253
     3.7280   3.7391   3.7423   3.7475   3.7526   3.7601   3.7639   3.7687
     3.7792   3.7816   3.7836   3.7913   3.7973   3.8047   3.8090   3.8102
     3.8122   3.8145   3.8183   3.8278   3.8329   3.8400   3.8495   3.8640
     3.8868   3.9125   3.9237   3.9307   3.9367   3.9442   3.9597   3.9677
     3.9716   3.9767   3.9880   3.9939   4.0038   4.0054   4.0251   4.0319
     4.0355   4.0450   4.0691   4.0784   4.0908   4.1279   4.1500   4.1650
     4.1755   4.1809   4.2318   4.2461   4.2563   4.2739   4.2847   4.3093
     4.3206   4.3567   4.3691   4.3806   4.4170   4.4317   4.4358   4.4523
     4.5072   4.6049   4.6166   4.6291   4.6320   4.6970   4.7066   4.7270
     4.7381   4.7486   4.7577   4.7638   4.7710   4.7778   4.8602   4.9334
     4.9371   4.9561   4.9855   5.0107   5.0396   5.0549   5.0619   5.0880
     5.1052   5.1281   5.1319   5.1938   5.2231   5.2328   5.2428   5.3113
     5.3215   5.3405   5.3578   5.4429   5.4620   5.4816   5.4853   5.4933
     5.5112   5.5208   5.5373   5.6845   5.7987   5.8158   6.0575   6.3278
     6.4063   6.6229   6.6395   6.6743   6.7082   6.7506   6.7901   6.8849
     6.9422   6.9579   7.0314   7.2210   7.2616   7.2844   7.3905   7.4334
     7.4560   7.4924   7.5155   7.5555   7.5703   7.5746   7.6288   7.6432
     7.6553   7.6605   7.6627   7.6835   7.6964   7.7006   7.7227   7.7297
     7.7458   7.7632   7.7863   7.8209   7.8593   7.8869   7.8995   7.9063
     7.9165   7.9426   7.9481   7.9651   7.9715   8.0036   8.0081   8.0188
     8.0487   8.0555   8.0663   8.0730   8.0826   8.0886   8.1004   8.1114
     8.1247   8.1421   8.1505   8.1749   8.1887   8.2073   8.2373   8.2508
     8.2646   8.2890   8.3044   8.3141   8.3553   8.3814   8.4002   8.4338
     8.4593   8.4799   8.4831   8.5278   8.5372   8.5445   8.5525   8.5768
     8.5968   8.6070   8.6145   8.6216   8.6271   8.6402

     occupation numbers 
     1.0000   1.0000   1.0000   1.0000   1.0000   1.0000   1.0000   1.0000
     1.0000   1.0000   1.0000   1.0000   1.0000   1.0000   1.0000   1.0000
     1.0000   1.0000   1.0000   1.0000   1.0000   1.0000   1.0000   1.0000
     1.0000   1.0000   1.0000   1.0000   1.0000   1.0000   1.0000   1.0000
     1.0000   1.0000   1.0000   1.0000   1.0000   1.0000   1.0000   1.0000
     1.0000   1.0000   1.0000   1.0000   1.0000   1.0000   1.0000   1.0000
     1.0000   1.0000   1.0000   1.0000   1.0000   1.0000   1.0000   1.0000
     1.0000   1.0000   1.0000   1.0000   1.0000   1.0000   1.0000   1.0000
     1.0000   1.0000   1.0000   1.0000   1.0000   1.0000   1.0000   1.0000
     1.0000   1.0000   1.0000   1.0000   1.0000   1.0000   1.0000   1.0000
     1.0000   1.0000   1.0000   1.0000   1.0000   1.0000   1.0000   1.0000
     1.0000   1.0000   1.0000   1.0000   1.0000   1.0000   1.0000   1.0000
     1.0000   1.0000   1.0000   1.0000   1.0000   1.0000   1.0000   1.0000
     1.0000   1.0000   1.0000   1.0000   1.0000   1.0000   1.0000   1.0000
     1.0000   1.0000   1.0000   1.0000   1.0000   1.0000   1.0000   1.0000
     1.0000   1.0000   1.0000   1.0000   1.0000   1.0000   1.0000   1.0000
     1.0000   1.0000   1.0000   1.0000   1.0000   1.0000   1.0000   1.0000
     1.0000   1.0000   1.0000   1.0000   1.0000   1.0000   1.0000   1.0000
     1.0000   1.0000   1.0000   1.0000   1.0000   1.0000   1.0000   1.0000
     1.0000   1.0000   1.0000   1.0000   1.0000   1.0000   1.0000   1.0000
     1.0000   1.0000   1.0000   1.0000   1.0000   1.0000   1.0000   1.0000
     1.0000   1.0000   1.0000   1.0000   1.0000   1.0000   1.0000   1.0000
     1.0000   1.0000   1.0000   1.0000   1.0000   1.0000   1.0000   1.0000
     1.0000   1.0000   1.0000   1.0000   1.0000   1.0000   1.0000   1.0000
     1.0000   1.0000   1.0000   1.0000   1.0000   1.0000   1.0000   1.0000
     1.0000   1.0000   1.0000   1.0000   1.0000   1.0000   1.0000   1.0000
     1.0000   1.0000   1.0000   1.0000   1.0000   1.0000   1.0000   1.0000
     1.0000   1.0000   1.0000   1.0000   1.0000   1.0000   1.0000   1.0000
     1.0000   1.0000   1.0000   1.0000   1.0000   1.0000   1.0000   1.0000
     1.0000   1.0000   1.0000   1.0000   1.0000   1.0000   1.0000   1.0000
     1.0000   1.0000   1.0000   1.0000   1.0000   1.0000   1.0000   1.0000
     1.0000   1.0000   1.0000   1.0000   1.0000   1.0000   1.0000   1.0000
     1.0000   1.0000   1.0000   1.0000   1.0000   1.0000   1.0000   1.0000
     1.0000   1.0000   1.0000   1.0000   1.0000   1.0000   1.0000   1.0000
     1.0000   1.0000   1.0000   1.0000   1.0000   1.0000   1.0000   1.0000
     1.0000   1.0000   1.0000   1.0000   1.0000   1.0000   1.0000   1.0000
     1.0000   1.0000   1.0000   1.0000   1.0000   1.0000   1.0000   1.0000
     1.0001   1.0001   1.0001   1.0001   1.0001   1.0001   1.0001   1.0001
     1.0002   1.0002   1.0002   1.0002   1.0002   1.0002   1.0003   1.0003
     1.0003   1.0003   1.0003   1.0003   1.0004   1.0004   1.0004   1.0004
     1.0005   1.0005   1.0005   1.0005   1.0005   1.0006   1.0006   1.0006
     1.0007   1.0007   1.0007   1.0007   1.0007   1.0008   1.0008   1.0008
     1.0008   1.0008   1.0009   1.0009   1.0010   1.0010   1.0011   1.0012
     1.0014   1.0016   1.0017   1.0018   1.0019   1.0020   1.0022   1.0023
     1.0024   1.0024   1.0026   1.0027   1.0029   1.0029   1.0033   1.0034
     1.0035   1.0037   1.0042   1.0044   1.0048   1.0058   1.0066   1.0071
     1.0075   1.0078   1.0100   1.0108   1.0113   1.0123   1.0129   1.0145
     1.0153   1.0179   1.0189   1.0198   1.0231   1.0244   1.0248   1.0265
     1.0324   1.0446   1.0461   1.0478   1.0482   1.0572   1.0585   1.0613
     1.0628   1.0642   1.0654   1.0662   1.0671   1.0680   1.0772   1.0823
     1.0825   1.0831   1.0833   1.0827   1.0812   1.0799   1.0792   1.0760
     1.0734   1.0691   1.0683   1.0520   1.0418   1.0381   1.0341   1.0012
     0.9954   0.9843   0.9735   0.9121   0.8964   0.8797   0.8765   0.8695
     0.8534   0.8446   0.8291   0.6771   0.5509   0.5321   0.2907   0.1135
     0.0818   0.0291   0.0267   0.0222   0.0184   0.0145   0.0115   0.0064
     0.0045   0.0040   0.0024   0.0006   0.0004   0.0004   0.0002   0.0001
     0.0001   0.0001   0.0001   0.0000   0.0000   0.0000   0.0000   0.0000
     0.0000   0.0000   0.0000   0.0000   0.0000   0.0000   0.0000   0.0000
     0.0000   0.0000   0.0000   0.0000   0.0000   0.0000   0.0000   0.0000
     0.0000   0.0000   0.0000   0.0000   0.0000   0.0000   0.0000   0.0000
     0.0000   0.0000   0.0000   0.0000   0.0000   0.0000   0.0000   0.0000
     0.0000   0.0000   0.0000   0.0000   0.0000   0.0000   0.0000   0.0000
     0.0000   0.0000   0.0000   0.0000   0.0000   0.0000   0.0000   0.0000
     0.0000   0.0000   0.0000   0.0000   0.0000   0.0000   0.0000   0.0000
     0.0000   0.0000   0.0000   0.0000   0.0000   0.0000

          k = 0.0000 0.0000-0.5060 (136108 PWs)   bands (ev):

    -5.7144  -5.7093  -5.3082  -5.3016  -5.2550  -5.2469  -5.2440  -5.2218
    -5.2080  -5.1937  -4.9175  -4.8615  -4.8276  -4.8108  -4.7767  -4.7581
    -4.7513  -4.7428  -4.7333  -4.6864  -4.4020  -4.3709  -4.3493  -4.3311
    -4.2972  -4.2738  -4.2423  -4.2345  -4.1129  -4.1025  -4.0035  -3.9747
    -3.9386  -3.9300  -3.9172  -3.9114  -3.9024  -3.9006  -3.8834  -3.8765
    -3.8630  -3.8190  -3.8005  -3.7553  -3.6892  -3.6760  -3.6362  -3.6287
    -3.5963  -3.5793  -3.5369  -3.5151  -3.5043  -3.5014  -3.4922  -3.4776
    -3.4733  -3.4580  -3.4459  -3.4087  -3.3939  -3.3387  -3.2703  -3.2591
    -3.2528  -3.2409  -3.2272  -3.2150  -3.2010  -3.1808  -3.1589  -3.1406
    -3.1051  -3.0728  -3.0134  -3.0079  -2.9964  -2.9633  -2.8670  -2.8382
    -2.8278  -2.7879  -2.7530  -2.7330  -2.6819  -2.6793  -2.6716  -2.6485
    -2.6274  -2.5873  -2.5520  -2.5240  -2.5042  -2.3968  -2.2385  -2.2307
    -2.1180  -2.1052  -2.0175  -2.0115  -2.0011  -1.9723  -1.8879  -1.8691
    -1.7485  -1.7389  -1.7209  -1.7121  -1.7101  -1.6629  -1.6019  -1.5522
    -1.5034  -1.4738  -1.3315  -1.3173  -1.2309  -1.2149  -1.1569  -1.1484
    -1.0978  -1.0571  -0.8759  -0.8350  -0.7993  -0.7842  -0.7545  -0.7384
    -0.7270  -0.7179  -0.7154  -0.7001  -0.6768  -0.6627  -0.6613  -0.6458
    -0.6349  -0.6099  -0.6037  -0.5848  -0.5246  -0.5202  -0.4922  -0.4817
    -0.4696  -0.4004  -0.2986  -0.2849  -0.2642  -0.2585  -0.2256  -0.2128
    -0.1916  -0.1803  -0.1554  -0.1376  -0.1252  -0.0973  -0.0650  -0.0572
    -0.0271  -0.0191  -0.0101   0.0040   0.0181   0.0231   0.0525   0.0624
     0.0734   0.0816   0.0972   0.1073   0.1169   0.1214   0.1324   0.1337
     0.1449   0.1493   0.1784   0.5415   0.7275   0.7415   0.7484   0.8239
     0.8498   0.8859   0.8990   1.0708   1.1593   1.2344   1.2953   1.3389
     1.3472   1.3705   1.3922   1.4192   1.4448   1.5270   1.6069   1.6712
     1.7097   1.7735   1.7896   1.7955   1.8107   1.8390   1.8404   1.8504
     1.8558   1.8712   1.8764   1.8878   1.9052   1.9202   1.9263   1.9543
     1.9804   2.0239   2.0320   2.0498   2.1302   2.1638   2.1888   2.2020
     2.2047   2.2152   2.2185   2.2306   2.2472   2.2535   2.2750   2.2763
     2.2808   2.3041   2.3173   2.3207   2.3374   2.3518   2.3789   2.3881
     2.5887   2.6189   2.6611   2.7093   2.7741   2.7887   2.7929   2.8007
     2.8093   2.8233   2.8257   2.8496   2.8619   2.8689   2.8696   2.8774
     2.8815   2.8887   2.8984   2.9101   2.9106   2.9161   2.9222   2.9340
     2.9436   2.9449   2.9515   2.9580   2.9612   2.9667   2.9761   2.9866
     2.9871   2.9933   3.0001   3.0116   3.0147   3.0236   3.0332   3.0528
     3.0649   3.0735   3.1029   3.1392   3.1483   3.1604   3.1727   3.1785
     3.1967   3.2132   3.2252   3.2347   3.2499   3.2557   3.2612   3.2714
     3.2770   3.2888   3.2914   3.2984   3.3022   3.3164   3.3340   3.3560
     3.3594   3.3787   3.3819   3.4035   3.4214   3.4566   3.4646   3.4680
     3.4734   3.5175   3.5692   3.6077   3.6560   3.6618   3.6744   3.6876
     3.7058   3.7084   3.7183   3.7257   3.7273   3.7645   3.7795   3.8002
     3.8102   3.8241   3.8271   3.8386   3.8398   3.8468   3.8559   3.8643
     3.8699   3.8719   3.8770   3.8834   3.8934   3.9119   3.9200   3.9514
     3.9624   3.9842   4.0011   4.0338   4.0612   4.0636   4.0916   4.1088
     4.1212   4.1370   4.1577   4.1688   4.1791   4.2076   4.2203   4.2292
     4.2433   4.2596   4.2834   4.2943   4.2980   4.3054   4.3220   4.3330
     4.3512   4.3598   4.3692   4.3794   4.3956   4.3983   4.4100   4.4143
     4.4231   4.4436   4.4666   4.4755   4.4861   4.5010   4.5087   4.5236
     4.5370   4.5509   4.5612   4.5749   4.5866   4.6338   4.6401   4.6532
     4.6671   4.6782   4.6871   4.7076   4.7134   4.7240   4.7365   4.7445
     4.7617   4.7807   4.8211   4.8393   4.8801   4.9047   4.9600   4.9806
     5.0682   5.0792   5.0926   5.1029   5.1597   5.1634   5.1918   5.2078
     5.2717   5.2863   5.3014   5.3218   5.3607   5.3721   5.3923   5.4272
     5.4933   5.4940   5.5199   5.5513   5.5860   5.6131   5.7984   5.8381
     6.4185   6.4698   7.0452   7.0934   7.2122   7.2259   7.2433   7.2710
     7.2904   7.3095   7.3217   7.3471   7.3667   7.3794   7.3852   7.4308
     7.4746   7.4894   7.4942   7.5230   7.5398   7.5533   7.5640   7.5856
     7.6439   7.6604   7.6711   7.7164   7.7302   7.7680   7.7759   7.7922
     7.8104   7.8218   7.8316   7.8487   7.8726   7.9071   7.9216   7.9368
     7.9477   7.9611   7.9662   8.0011   8.0206   8.0413   8.0492   8.0595
     8.0891   8.0970   8.1267   8.1522   8.1635   8.1835   8.1883   8.1931
     8.2066   8.2142   8.2309   8.2437   8.2603   8.2735   8.3011   8.3150
     8.3234   8.3305   8.3392   8.3443   8.3577   8.3626   8.3799   8.3892
     8.4089   8.4143   8.4293   8.4378   8.4458   8.4528   8.4592   8.4606
     8.4716   8.4848   8.4942   8.4976   8.5142   8.5161

     occupation numbers 
     1.0000   1.0000   1.0000   1.0000   1.0000   1.0000   1.0000   1.0000
     1.0000   1.0000   1.0000   1.0000   1.0000   1.0000   1.0000   1.0000
     1.0000   1.0000   1.0000   1.0000   1.0000   1.0000   1.0000   1.0000
     1.0000   1.0000   1.0000   1.0000   1.0000   1.0000   1.0000   1.0000
     1.0000   1.0000   1.0000   1.0000   1.0000   1.0000   1.0000   1.0000
     1.0000   1.0000   1.0000   1.0000   1.0000   1.0000   1.0000   1.0000
     1.0000   1.0000   1.0000   1.0000   1.0000   1.0000   1.0000   1.0000
     1.0000   1.0000   1.0000   1.0000   1.0000   1.0000   1.0000   1.0000
     1.0000   1.0000   1.0000   1.0000   1.0000   1.0000   1.0000   1.0000
     1.0000   1.0000   1.0000   1.0000   1.0000   1.0000   1.0000   1.0000
     1.0000   1.0000   1.0000   1.0000   1.0000   1.0000   1.0000   1.0000
     1.0000   1.0000   1.0000   1.0000   1.0000   1.0000   1.0000   1.0000
     1.0000   1.0000   1.0000   1.0000   1.0000   1.0000   1.0000   1.0000
     1.0000   1.0000   1.0000   1.0000   1.0000   1.0000   1.0000   1.0000
     1.0000   1.0000   1.0000   1.0000   1.0000   1.0000   1.0000   1.0000
     1.0000   1.0000   1.0000   1.0000   1.0000   1.0000   1.0000   1.0000
     1.0000   1.0000   1.0000   1.0000   1.0000   1.0000   1.0000   1.0000
     1.0000   1.0000   1.0000   1.0000   1.0000   1.0000   1.0000   1.0000
     1.0000   1.0000   1.0000   1.0000   1.0000   1.0000   1.0000   1.0000
     1.0000   1.0000   1.0000   1.0000   1.0000   1.0000   1.0000   1.0000
     1.0000   1.0000   1.0000   1.0000   1.0000   1.0000   1.0000   1.0000
     1.0000   1.0000   1.0000   1.0000   1.0000   1.0000   1.0000   1.0000
     1.0000   1.0000   1.0000   1.0000   1.0000   1.0000   1.0000   1.0000
     1.0000   1.0000   1.0000   1.0000   1.0000   1.0000   1.0000   1.0000
     1.0000   1.0000   1.0000   1.0000   1.0000   1.0000   1.0000   1.0000
     1.0000   1.0000   1.0000   1.0000   1.0000   1.0000   1.0000   1.0000
     1.0000   1.0000   1.0000   1.0000   1.0000   1.0000   1.0000   1.0000
     1.0000   1.0000   1.0000   1.0000   1.0000   1.0000   1.0000   1.0000
     1.0000   1.0000   1.0000   1.0000   1.0000   1.0000   1.0000   1.0000
     1.0000   1.0000   1.0000   1.0000   1.0000   1.0000   1.0000   1.0000
     1.0000   1.0000   1.0000   1.0000   1.0000   1.0000   1.0000   1.0000
     1.0000   1.0000   1.0000   1.0000   1.0000   1.0000   1.0000   1.0000
     1.0000   1.0000   1.0000   1.0000   1.0000   1.0000   1.0000   1.0000
     1.0000   1.0000   1.0000   1.0000   1.0000   1.0000   1.0000   1.0000
     1.0000   1.0000   1.0000   1.0000   1.0000   1.0000   1.0000   1.0000
     1.0000   1.0000   1.0000   1.0000   1.0000   1.0000   1.0000   1.0000
     1.0000   1.0000   1.0000   1.0000   1.0000   1.0000   1.0000   1.0000
     1.0000   1.0000   1.0000   1.0000   1.0000   1.0000   1.0000   1.0000
     1.0000   1.0000   1.0000   1.0000   1.0000   1.0001   1.0001   1.0001
     1.0001   1.0001   1.0001   1.0002   1.0003   1.0003   1.0003   1.0003
     1.0004   1.0004   1.0004   1.0004   1.0005   1.0006   1.0007   1.0008
     1.0008   1.0009   1.0009   1.0010   1.0010   1.0010   1.0011   1.0012
     1.0012   1.0012   1.0013   1.0013   1.0014   1.0016   1.0017   1.0021
     1.0022   1.0025   1.0028   1.0034   1.0040   1.0041   1.0048   1.0053
     1.0056   1.0061   1.0069   1.0073   1.0077   1.0089   1.0095   1.0099
     1.0106   1.0115   1.0129   1.0135   1.0138   1.0143   1.0154   1.0161
     1.0175   1.0182   1.0189   1.0197   1.0211   1.0214   1.0224   1.0228
     1.0236   1.0256   1.0279   1.0289   1.0300   1.0317   1.0326   1.0343
     1.0359   1.0376   1.0389   1.0407   1.0422   1.0485   1.0493   1.0511
     1.0530   1.0546   1.0558   1.0586   1.0594   1.0609   1.0626   1.0637
     1.0659   1.0684   1.0732   1.0752   1.0790   1.0808   1.0832   1.0833
     1.0785   1.0772   1.0754   1.0738   1.0618   1.0609   1.0526   1.0473
     1.0213   1.0143   1.0065   0.9953   0.9716   0.9642   0.9503   0.9244
     0.8695   0.8689   0.8454   0.8155   0.7812   0.7533   0.5513   0.5077
     0.0776   0.0617   0.0022   0.0016   0.0007   0.0006   0.0005   0.0004
     0.0004   0.0003   0.0003   0.0002   0.0002   0.0002   0.0002   0.0001
     0.0001   0.0001   0.0001   0.0000   0.0000   0.0000   0.0000   0.0000
     0.0000   0.0000   0.0000   0.0000   0.0000   0.0000   0.0000   0.0000
     0.0000   0.0000   0.0000   0.0000   0.0000   0.0000   0.0000   0.0000
     0.0000   0.0000   0.0000   0.0000   0.0000   0.0000   0.0000   0.0000
     0.0000   0.0000   0.0000   0.0000   0.0000   0.0000   0.0000   0.0000
     0.0000   0.0000   0.0000   0.0000   0.0000   0.0000   0.0000   0.0000
     0.0000   0.0000   0.0000   0.0000   0.0000   0.0000   0.0000   0.0000
     0.0000   0.0000   0.0000   0.0000   0.0000   0.0000   0.0000   0.0000
     0.0000   0.0000   0.0000   0.0000   0.0000   0.0000

          k = 0.0000-0.4860-0.0078 (136054 PWs)   bands (ev):

    -5.7271  -5.7129  -5.3169  -5.2584  -5.2492  -5.2405  -5.2251  -5.2184
    -5.2133  -5.1958  -4.8788  -4.8644  -4.8336  -4.8014  -4.7939  -4.7767
    -4.7414  -4.7263  -4.7166  -4.6945  -4.4466  -4.4311  -4.3987  -4.3904
    -4.3297  -4.3187  -4.3031  -4.2855  -4.1455  -4.1247  -4.0040  -3.9803
    -3.9658  -3.9406  -3.9214  -3.8988  -3.8956  -3.8587  -3.8377  -3.8123
    -3.8013  -3.7896  -3.7833  -3.7258  -3.6285  -3.6193  -3.6059  -3.5909
    -3.5290  -3.5128  -3.5055  -3.4989  -3.4937  -3.4808  -3.4452  -3.4208
    -3.4121  -3.3924  -3.3839  -3.3758  -3.3644  -3.3255  -3.2614  -3.2468
    -3.2394  -3.2376  -3.2352  -3.2082  -3.1722  -3.1581  -3.1444  -3.1326
    -3.0743  -3.0602  -3.0541  -3.0350  -3.0290  -3.0240  -3.0167  -2.9331
    -2.8601  -2.8384  -2.8185  -2.8004  -2.7863  -2.7758  -2.7623  -2.7321
    -2.7107  -2.6924  -2.6783  -2.6475  -2.6303  -2.4529  -2.1931  -2.1891
    -2.1463  -2.1181  -2.0289  -2.0134  -1.9463  -1.9267  -1.7171  -1.6977
    -1.6835  -1.6634  -1.6315  -1.6249  -1.5984  -1.5608  -1.5264  -1.4835
    -1.4153  -1.3901  -1.1865  -1.1734  -1.1634  -1.1558  -1.1166  -1.0835
    -1.0516  -1.0258  -0.9388  -0.8361  -0.8233  -0.7943  -0.7820  -0.7674
    -0.7553  -0.7481  -0.7390  -0.7350  -0.7322  -0.7225  -0.7125  -0.7106
    -0.7020  -0.6952  -0.6899  -0.6789  -0.6688  -0.6224  -0.6130  -0.5827
    -0.5642  -0.5542  -0.5465  -0.3786  -0.2362  -0.1547  -0.1386  -0.1291
    -0.1173  -0.1062  -0.1002  -0.0899  -0.0843  -0.0709  -0.0657  -0.0536
    -0.0522  -0.0439  -0.0248  -0.0095   0.0082   0.0185   0.0302   0.0350
     0.0485   0.0590   0.0689   0.0763   0.0864   0.0909   0.1018   0.1168
     0.1297   0.1430   0.1738   0.6333   0.8580   0.9030   0.9187   0.9277
     0.9363   0.9483   0.9637   1.0770   1.2381   1.2688   1.3112   1.3164
     1.3524   1.3751   1.3848   1.3929   1.3993   1.5130   1.6012   1.6589
     1.6753   1.7400   1.7602   1.8050   1.8176   1.8236   1.8483   1.8545
     1.8857   1.8903   1.9267   1.9347   1.9525   1.9740   1.9843   1.9874
     1.9948   2.0101   2.0187   2.0282   2.0379   2.0436   2.0602   2.0944
     2.1091   2.1379   2.1473   2.1826   2.1938   2.2336   2.2949   2.3243
     2.3551   2.3676   2.3772   2.3876   2.4029   2.4083   2.4214   2.4377
     2.4492   2.5030   2.5970   2.6454   2.6644   2.6840   2.7104   2.7131
     2.7305   2.7510   2.7599   2.7772   2.7889   2.7960   2.8102   2.8211
     2.8401   2.8508   2.8856   2.8954   2.9027   2.9134   2.9360   2.9633
     2.9687   2.9752   2.9816   2.9868   2.9920   2.9999   3.0067   3.0267
     3.0324   3.0395   3.0448   3.0455   3.0583   3.0652   3.0811   3.0837
     3.0949   3.1089   3.1159   3.1298   3.1412   3.1482   3.1567   3.1667
     3.1785   3.1858   3.1906   3.1980   3.2073   3.2160   3.2343   3.2586
     3.2592   3.2878   3.2912   3.3018   3.3249   3.3462   3.3579   3.3867
     3.3944   3.4069   3.4325   3.4488   3.4763   3.4976   3.5268   3.5577
     3.5708   3.5794   3.6260   3.6362   3.6382   3.6527   3.6682   3.6738
     3.6994   3.7335   3.7566   3.7675   3.7761   3.7793   3.7861   3.8111
     3.8328   3.8545   3.8922   3.9028   3.9134   3.9182   3.9304   3.9379
     3.9563   3.9581   3.9635   3.9746   3.9807   4.0009   4.0048   4.0125
     4.0176   4.0361   4.0484   4.0567   4.0652   4.0841   4.0868   4.0988
     4.1085   4.1152   4.1317   4.1513   4.1546   4.1729   4.1884   4.1959
     4.2052   4.2144   4.2227   4.2250   4.2324   4.2374   4.2711   4.2831
     4.3080   4.3323   4.3530   4.3667   4.3728   4.3982   4.4011   4.4129
     4.4210   4.4331   4.4351   4.4453   4.4747   4.4841   4.4854   4.4908
     4.5035   4.5105   4.5258   4.5284   4.5394   4.5500   4.5667   4.5723
     4.5779   4.5967   4.6121   4.6227   4.6274   4.6388   4.6705   4.6731
     4.7170   4.7584   4.7620   4.7751   4.7809   4.8719   4.9382   4.9576
     5.0850   5.0868   5.1028   5.1158   5.1238   5.1545   5.2139   5.2372
     5.3150   5.3274   5.3573   5.3649   5.3742   5.3842   5.4029   5.4262
     5.5576   5.5911   5.6303   5.6423   5.7491   5.7582   5.9189   5.9495
     6.7257   6.7993   6.9083   6.9249   7.1474   7.1678   7.1745   7.1931
     7.2497   7.2577   7.3024   7.3152   7.3187   7.3710   7.3928   7.3990
     7.4349   7.4455   7.4693   7.4709   7.4953   7.5176   7.5332   7.5598
     7.6613   7.6838   7.6934   7.7167   7.7397   7.7830   7.7946   7.8371
     7.8882   7.8898   7.9269   7.9337   7.9610   7.9836   8.0013   8.0116
     8.0134   8.0274   8.0303   8.0409   8.0494   8.0563   8.0639   8.0788
     8.0916   8.0972   8.1055   8.1096   8.1221   8.1328   8.1468   8.1565
     8.1589   8.1746   8.1882   8.2016   8.2299   8.2350   8.2409   8.2520
     8.2577   8.2731   8.2813   8.2915   8.2926   8.3111   8.3200   8.3307
     8.3399   8.3452   8.3545   8.3788   8.3873   8.3987   8.4023   8.4119
     8.4183   8.4414   8.4451   8.4750   8.4822   8.4831

     occupation numbers 
     1.0000   1.0000   1.0000   1.0000   1.0000   1.0000   1.0000   1.0000
     1.0000   1.0000   1.0000   1.0000   1.0000   1.0000   1.0000   1.0000
     1.0000   1.0000   1.0000   1.0000   1.0000   1.0000   1.0000   1.0000
     1.0000   1.0000   1.0000   1.0000   1.0000   1.0000   1.0000   1.0000
     1.0000   1.0000   1.0000   1.0000   1.0000   1.0000   1.0000   1.0000
     1.0000   1.0000   1.0000   1.0000   1.0000   1.0000   1.0000   1.0000
     1.0000   1.0000   1.0000   1.0000   1.0000   1.0000   1.0000   1.0000
     1.0000   1.0000   1.0000   1.0000   1.0000   1.0000   1.0000   1.0000
     1.0000   1.0000   1.0000   1.0000   1.0000   1.0000   1.0000   1.0000
     1.0000   1.0000   1.0000   1.0000   1.0000   1.0000   1.0000   1.0000
     1.0000   1.0000   1.0000   1.0000   1.0000   1.0000   1.0000   1.0000
     1.0000   1.0000   1.0000   1.0000   1.0000   1.0000   1.0000   1.0000
     1.0000   1.0000   1.0000   1.0000   1.0000   1.0000   1.0000   1.0000
     1.0000   1.0000   1.0000   1.0000   1.0000   1.0000   1.0000   1.0000
     1.0000   1.0000   1.0000   1.0000   1.0000   1.0000   1.0000   1.0000
     1.0000   1.0000   1.0000   1.0000   1.0000   1.0000   1.0000   1.0000
     1.0000   1.0000   1.0000   1.0000   1.0000   1.0000   1.0000   1.0000
     1.0000   1.0000   1.0000   1.0000   1.0000   1.0000   1.0000   1.0000
     1.0000   1.0000   1.0000   1.0000   1.0000   1.0000   1.0000   1.0000
     1.0000   1.0000   1.0000   1.0000   1.0000   1.0000   1.0000   1.0000
     1.0000   1.0000   1.0000   1.0000   1.0000   1.0000   1.0000   1.0000
     1.0000   1.0000   1.0000   1.0000   1.0000   1.0000   1.0000   1.0000
     1.0000   1.0000   1.0000   1.0000   1.0000   1.0000   1.0000   1.0000
     1.0000   1.0000   1.0000   1.0000   1.0000   1.0000   1.0000   1.0000
     1.0000   1.0000   1.0000   1.0000   1.0000   1.0000   1.0000   1.0000
     1.0000   1.0000   1.0000   1.0000   1.0000   1.0000   1.0000   1.0000
     1.0000   1.0000   1.0000   1.0000   1.0000   1.0000   1.0000   1.0000
     1.0000   1.0000   1.0000   1.0000   1.0000   1.0000   1.0000   1.0000
     1.0000   1.0000   1.0000   1.0000   1.0000   1.0000   1.0000   1.0000
     1.0000   1.0000   1.0000   1.0000   1.0000   1.0000   1.0000   1.0000
     1.0000   1.0000   1.0000   1.0000   1.0000   1.0000   1.0000   1.0000
     1.0000   1.0000   1.0000   1.0000   1.0000   1.0000   1.0000   1.0000
     1.0000   1.0000   1.0000   1.0000   1.0000   1.0000   1.0000   1.0000
     1.0000   1.0000   1.0000   1.0000   1.0000   1.0000   1.0000   1.0000
     1.0000   1.0000   1.0000   1.0000   1.0000   1.0000   1.0000   1.0000
     1.0000   1.0000   1.0000   1.0000   1.0000   1.0000   1.0000   1.0000
     1.0000   1.0000   1.0000   1.0000   1.0000   1.0000   1.0000   1.0000
     1.0000   1.0000   1.0000   1.0000   1.0000   1.0000   1.0000   1.0000
     1.0000   1.0000   1.0000   1.0000   1.0001   1.0001   1.0001   1.0001
     1.0001   1.0001   1.0002   1.0002   1.0002   1.0003   1.0003   1.0003
     1.0004   1.0005   1.0006   1.0006   1.0006   1.0007   1.0007   1.0008
     1.0010   1.0011   1.0014   1.0015   1.0016   1.0017   1.0018   1.0019
     1.0021   1.0022   1.0022   1.0024   1.0025   1.0028   1.0029   1.0030
     1.0031   1.0035   1.0037   1.0039   1.0041   1.0046   1.0047   1.0050
     1.0053   1.0055   1.0060   1.0066   1.0068   1.0074   1.0081   1.0084
     1.0088   1.0092   1.0096   1.0097   1.0101   1.0103   1.0121   1.0129
     1.0144   1.0161   1.0176   1.0187   1.0192   1.0213   1.0216   1.0227
     1.0234   1.0246   1.0248   1.0258   1.0288   1.0298   1.0300   1.0306
     1.0320   1.0328   1.0346   1.0349   1.0362   1.0375   1.0396   1.0403
     1.0410   1.0435   1.0455   1.0470   1.0476   1.0491   1.0535   1.0539
     1.0599   1.0655   1.0660   1.0677   1.0684   1.0783   1.0825   1.0831
     1.0764   1.0762   1.0738   1.0715   1.0700   1.0631   1.0452   1.0363
     0.9991   0.9921   0.9738   0.9689   0.9628   0.9559   0.9426   0.9252
     0.8094   0.7760   0.7353   0.7226   0.6059   0.5958   0.4221   0.3912
     0.0167   0.0109   0.0056   0.0050   0.0011   0.0009   0.0009   0.0008
     0.0005   0.0005   0.0003   0.0003   0.0003   0.0002   0.0002   0.0001
     0.0001   0.0001   0.0001   0.0001   0.0001   0.0001   0.0000   0.0000
     0.0000   0.0000   0.0000   0.0000   0.0000   0.0000   0.0000   0.0000
     0.0000   0.0000   0.0000   0.0000   0.0000   0.0000   0.0000   0.0000
     0.0000   0.0000   0.0000   0.0000   0.0000   0.0000   0.0000   0.0000
     0.0000   0.0000   0.0000   0.0000   0.0000   0.0000   0.0000   0.0000
     0.0000   0.0000   0.0000   0.0000   0.0000   0.0000   0.0000   0.0000
     0.0000   0.0000   0.0000   0.0000   0.0000   0.0000   0.0000   0.0000
     0.0000   0.0000   0.0000   0.0000   0.0000   0.0000   0.0000   0.0000
     0.0000   0.0000   0.0000   0.0000   0.0000   0.0000

          k = 0.0000-0.4860-0.5137 (135982 PWs)   bands (ev):

    -5.6147  -5.6025  -5.5905  -5.5861  -5.2261  -5.1565  -5.1400  -5.1278
    -5.1100  -5.0919  -5.0872  -5.0702  -4.7475  -4.7270  -4.6800  -4.6778
    -4.6591  -4.6293  -4.6194  -4.5821  -4.3985  -4.3708  -4.3373  -4.3202
    -4.2932  -4.2895  -4.2466  -4.2364  -4.2182  -4.2035  -4.1944  -4.1791
    -4.1548  -4.1441  -4.1357  -4.0955  -3.9052  -3.8593  -3.8361  -3.8207
    -3.8069  -3.7915  -3.7804  -3.7703  -3.7454  -3.7390  -3.7294  -3.6935
    -3.6723  -3.6281  -3.5825  -3.5693  -3.5641  -3.5470  -3.5075  -3.4705
    -3.3336  -3.3252  -3.3214  -3.2882  -3.1935  -3.1865  -3.1749  -3.1562
    -3.0839  -3.0704  -3.0605  -3.0594  -3.0242  -3.0192  -3.0083  -3.0009
    -2.9724  -2.9522  -2.9310  -2.9104  -2.8902  -2.8641  -2.8086  -2.7976
    -2.7936  -2.7769  -2.7726  -2.7553  -2.7425  -2.7061  -2.6844  -2.6621
    -2.6429  -2.6219  -2.6165  -2.5989  -2.5905  -2.5339  -2.5156  -2.4795
    -2.4529  -2.4129  -2.3752  -2.3708  -2.3439  -2.2945  -2.2673  -2.1149
    -1.9059  -1.8742  -1.7997  -1.7541  -1.4567  -1.4419  -1.3881  -1.3400
    -0.9847  -0.9097  -0.8695  -0.8618  -0.8286  -0.8190  -0.8034  -0.8011
    -0.7841  -0.7704  -0.7504  -0.7349  -0.7123  -0.7056  -0.6996  -0.6933
    -0.6901  -0.6682  -0.6632  -0.6500  -0.6373  -0.6310  -0.6193  -0.6113
    -0.6023  -0.5928  -0.5863  -0.5841  -0.5795  -0.5737  -0.5622  -0.5521
    -0.5505  -0.5360  -0.5338  -0.5244  -0.5168  -0.5027  -0.4986  -0.4923
    -0.4858  -0.4774  -0.4658  -0.4614  -0.4453  -0.4380  -0.4195  -0.3963
    -0.3875  -0.3839  -0.3652  -0.3465  -0.3246  -0.3123  -0.2571   0.1922
     0.4614   0.5255   0.5647   0.5724   0.5726   0.5917   0.6020   0.6036
     0.6222   0.6328   0.6349   0.6537   0.6623   0.6717   0.6947   0.7140
     0.7368   0.7748   0.7928   0.8244   0.8408   0.8761   0.8840   0.9074
     0.9201   0.9423   0.9541   1.3406   1.6803   1.7180   1.9028   1.9057
     1.9182   1.9336   1.9412   1.9605   1.9750   1.9822   2.0069   2.0250
     2.0614   2.0667   2.0782   2.0886   2.1074   2.1223   2.1264   2.1324
     2.1400   2.1412   2.1500   2.1600   2.1637   2.1763   2.1840   2.1893
     2.1955   2.2060   2.2176   2.2201   2.2293   2.2434   2.2618   2.2795
     2.2940   2.3134   2.3410   2.3443   2.3617   2.3731   2.3825   2.3926
     2.3971   2.4233   2.4357   2.4580   2.4643   2.4954   2.5164   2.5227
     2.5711   2.5803   2.5915   2.6214   2.6548   2.6742   2.6886   2.6986
     2.7301   2.7486   2.7523   2.7651   2.7911   2.8129   2.8252   2.8479
     2.8854   2.9160   2.9269   2.9673   2.9709   2.9746   2.9888   3.0059
     3.0116   3.0289   3.0477   3.0654   3.0790   3.0882   3.0907   3.1091
     3.1140   3.1277   3.1458   3.1642   3.1807   3.1943   3.1989   3.2118
     3.2187   3.2252   3.2403   3.2730   3.2751   3.2811   3.2928   3.3504
     3.3708   3.3965   3.4001   3.4181   3.4229   3.4288   3.4465   3.4531
[...]
     atom   27 type  1   force =     0.00001134    0.00000627   -0.00000673
     atom   28 type  1   force =     0.00000892    0.00000590   -0.00000209
     atom   29 type  1   force =     0.00000710    0.00000095    0.00000257
     atom   30 type  1   force =     0.00000564    0.00000383    0.00000293
     atom   31 type  1   force =     0.00000105    0.00000525    0.00000650
     atom   32 type  1   force =     0.00000357    0.00000717    0.00000873
     atom   33 type  1   force =    -0.00000074    0.00000014    0.00000801
     atom   34 type  1   force =     0.00000057    0.00000413    0.00000936
     atom   35 type  1   force =     0.00000222    0.00000648    0.00000803
     atom   36 type  1   force =    -0.00000014    0.00000506    0.00000586
     atom   37 type  1   force =     0.00000059    0.00000369    0.00000546
     atom   38 type  1   force =    -0.00000195    0.00000392    0.00000481
     atom   39 type  1   force =     0.00000234    0.00000689    0.00000466
     atom   40 type  1   force =     0.00000006    0.00000347    0.00000179
     atom   41 type  1   force =     0.00000569    0.00000368   -0.00000665
     atom   42 type  1   force =     0.00000765    0.00000647   -0.00000771
     atom   43 type  1   force =     0.00000270    0.00000461   -0.00000149
     atom   44 type  1   force =     0.00000110    0.00000011   -0.00000250
     atom   45 type  1   force =     0.00001088    0.00000341   -0.00000831
     atom   46 type  1   force =     0.00000949    0.00000384   -0.00000650
     atom   47 type  1   force =     0.00000703    0.00000897   -0.00001140
     atom   48 type  1   force =     0.00000691    0.00000779   -0.00000860
     atom   49 type  1   force =     0.00000315    0.00000890   -0.00000577
     atom   50 type  1   force =     0.00000411    0.00000497   -0.00000040
     atom   51 type  1   force =     0.00000345   -0.00000106   -0.00000058
     atom   52 type  1   force =     0.00000324   -0.00000512    0.00000079
     atom   53 type  1   force =     0.00000717    0.00000668    0.00000188
     atom   54 type  1   force =     0.00000352    0.00000171    0.00000231
     atom   55 type  1   force =     0.00000160    0.00000301    0.00000194
     atom   56 type  1   force =     0.00000066   -0.00000378    0.00000246
     atom   57 type  1   force =     0.00000141    0.00000483    0.00000897
     atom   58 type  1   force =    -0.00000028   -0.00000015    0.00000646
     atom   59 type  1   force =     0.00000275   -0.00000122    0.00000245
     atom   60 type  1   force =     0.00000125   -0.00000500    0.00000174
     atom   61 type  1   force =    -0.00000041    0.00000184    0.00000344
     atom   62 type  1   force =     0.00000017   -0.00000270   -0.00000002
     atom   63 type  1   force =    -0.00000239   -0.00000253    0.00000285
     atom   64 type  1   force =    -0.00000305   -0.00000592   -0.00000030
     atom   65 type  1   force =    -0.00000041    0.00000412   -0.00000315
     atom   66 type  1   force =    -0.00000184   -0.00000157   -0.00000368
     atom   67 type  1   force =    -0.00000090   -0.00000441   -0.00000119
     atom   68 type  1   force =     0.00000343   -0.00000479   -0.00000095
     atom   69 type  1   force =     0.00000266    0.00000265   -0.00000555
     atom   70 type  1   force =     0.00000318   -0.00000163   -0.00000186
     atom   71 type  1   force =    -0.00000428   -0.00000131   -0.00000636
     atom   72 type  1   force =    -0.00000165   -0.00000384   -0.00000131
     atom   73 type  1   force =     0.00000676   -0.00000330   -0.00000196
     atom   74 type  1   force =     0.00000544   -0.00000354   -0.00000325
     atom   75 type  1   force =     0.00000152   -0.00000262   -0.00000404
     atom   76 type  1   force =    -0.00000394   -0.00000284   -0.00000250
     atom   77 type  1   force =     0.00000215   -0.00000350   -0.00000345
     atom   78 type  1   force =    -0.00000042   -0.00000468   -0.00000143
     atom   79 type  1   force =     0.00000736   -0.00000356   -0.00000280
     atom   80 type  1   force =     0.00000354   -0.00000156   -0.00000263
     atom   81 type  1   force =     0.00000261   -0.00000636    0.00000119
     atom   82 type  1   force =     0.00000137   -0.00000666    0.00000301
     atom   83 type  1   force =     0.00000184   -0.00000504   -0.00000155
     atom   84 type  1   force =    -0.00000078   -0.00000349   -0.00000011
     atom   85 type  1   force =     0.00000257   -0.00000659    0.00000320
     atom   86 type  1   force =    -0.00000054   -0.00000918    0.00000432
     atom   87 type  1   force =     0.00000095   -0.00000332    0.00000400
     atom   88 type  1   force =    -0.00000237   -0.00000231    0.00000565
     atom   89 type  1   force =     0.00000584   -0.00000208   -0.00000035
     atom   90 type  1   force =     0.00000453   -0.00000296    0.00000144
     atom   91 type  1   force =    -0.00000123   -0.00000590    0.00000404
     atom   92 type  1   force =    -0.00000653   -0.00000606    0.00000362
     atom   93 type  1   force =     0.00000422   -0.00000252   -0.00000099
     atom   94 type  1   force =    -0.00000224   -0.00000519   -0.00000170
     atom   95 type  1   force =     0.00000743    0.00000043   -0.00000192
     atom   96 type  1   force =     0.00000280   -0.00000125   -0.00000196
     atom   97 type  1   force =     0.00000936    0.00000145   -0.00000570
     atom   98 type  1   force =     0.00000367    0.00000194   -0.00000380
     atom   99 type  1   force =    -0.00000392    0.00000239   -0.00000172
     atom  100 type  1   force =    -0.00000660    0.00000347   -0.00000055
     atom  101 type  1   force =     0.00000135    0.00000090   -0.00000514
     atom  102 type  1   force =    -0.00000261    0.00000220   -0.00000264
     atom  103 type  1   force =     0.00000692    0.00000565   -0.00000279
     atom  104 type  1   force =     0.00000130    0.00000506   -0.00000046
     atom  105 type  1   force =     0.00000245    0.00000166    0.00000153
     atom  106 type  1   force =    -0.00000143    0.00000444    0.00000223
     atom  107 type  1   force =    -0.00000048    0.00000589   -0.00000212
     atom  108 type  1   force =    -0.00000042    0.00000762    0.00000116
     atom  109 type  1   force =    -0.00000232    0.00000034    0.00000208
     atom  110 type  1   force =    -0.00000309    0.00000393    0.00000191
     atom  111 type  1   force =    -0.00000266    0.00000529    0.00000381
     atom  112 type  1   force =    -0.00000328    0.00000550    0.00000329
     atom  113 type  1   force =    -0.00000086    0.00000199    0.00000291
     atom  114 type  1   force =    -0.00000429    0.00000136    0.00000325
     atom  115 type  1   force =    -0.00000428    0.00000511    0.00000200
     atom  116 type  1   force =    -0.00000396    0.00000762   -0.00000012
     atom  117 type  1   force =    -0.00000518   -0.00000142    0.00000148
     atom  118 type  1   force =    -0.00000940   -0.00000018    0.00000132
     atom  119 type  1   force =     0.00000130    0.00000220   -0.00000281
     atom  120 type  1   force =    -0.00000070    0.00000122   -0.00000030
     atom  121 type  1   force =     0.00000357    0.00000157   -0.00000151
     atom  122 type  1   force =     0.00000169   -0.00000007    0.00000003
     atom  123 type  1   force =     0.00000174    0.00000166   -0.00000281
     atom  124 type  1   force =    -0.00000161   -0.00000071   -0.00000320
     atom  125 type  1   force =    -0.00000161    0.00000389   -0.00000120
     atom  126 type  1   force =    -0.00000375    0.00000148    0.00000235
     atom  127 type  1   force =     0.00000308   -0.00000159    0.00000078
     atom  128 type  1   force =     0.00000147   -0.00000480    0.00000072
     atom  129 type  1   force =     0.00000202    0.00000489    0.00000125
     atom  130 type  1   force =     0.00000088    0.00000167    0.00000216
     atom  131 type  1   force =     0.00000056   -0.00000102    0.00000132
     atom  132 type  1   force =     0.00000031   -0.00000406    0.00000485
     atom  133 type  1   force =     0.00000047    0.00000717    0.00000117
     atom  134 type  1   force =     0.00000170    0.00000497    0.00000220
     atom  135 type  1   force =     0.00000236   -0.00000222    0.00000030
     atom  136 type  1   force =     0.00000456   -0.00000306    0.00000185
     atom  137 type  1   force =    -0.00000016    0.00000064   -0.00000056
     atom  138 type  1   force =     0.00000292    0.00000011   -0.00000049
     atom  139 type  1   force =     0.00000464    0.00000091   -0.00000007
     atom  140 type  1   force =     0.00000246   -0.00000225    0.00000019
     atom  141 type  1   force =    -0.00000094    0.00000475   -0.00000151
     atom  142 type  1   force =    -0.00000241    0.00000446   -0.00000259
     atom  143 type  1   force =     0.00000348   -0.00000174   -0.00000161
     atom  144 type  1   force =     0.00000607   -0.00000164   -0.00000100
     atom  145 type  1   force =    -0.00000299   -0.00000274   -0.00000495
     atom  146 type  1   force =    -0.00000592   -0.00000663   -0.00000184
     atom  147 type  1   force =    -0.00000902   -0.00000934   -0.00000033
     atom  148 type  1   force =    -0.00000654   -0.00000772    0.00000347
     atom  149 type  1   force =    -0.00000348   -0.00000321   -0.00000088
     atom  150 type  1   force =    -0.00000359   -0.00000697    0.00000279
     atom  151 type  1   force =    -0.00000416   -0.00000340   -0.00000304
     atom  152 type  1   force =    -0.00000435   -0.00000346    0.00000068
     atom  153 type  1   force =    -0.00000078   -0.00000452    0.00000183
     atom  154 type  1   force =    -0.00000191   -0.00000782    0.00000266
     atom  155 type  1   force =    -0.00000136   -0.00000449    0.00000145
     atom  156 type  1   force =     0.00000010   -0.00000204    0.00000295
     atom  157 type  1   force =    -0.00000251   -0.00000743    0.00000269
     atom  158 type  1   force =    -0.00000270   -0.00000770   -0.00000055
     atom  159 type  1   force =    -0.00000087   -0.00000822    0.00000123
     atom  160 type  1   force =    -0.00000102   -0.00000495   -0.00000000
     atom  161 type  1   force =    -0.00000102   -0.00000810    0.00000158
     atom  162 type  1   force =    -0.00000633   -0.00001260    0.00000026
     atom  163 type  1   force =    -0.00000255   -0.00000802   -0.00000417
     atom  164 type  1   force =    -0.00000009   -0.00000315   -0.00000672
     atom  165 type  1   force =    -0.00000785   -0.00000865   -0.00000468
     atom  166 type  1   force =    -0.00000701   -0.00000942   -0.00000424
     atom  167 type  1   force =    -0.00000829   -0.00000876   -0.00000008
     atom  168 type  1   force =    -0.00001139   -0.00000753   -0.00000011
     atom  169 type  1   force =    -0.00001126   -0.00000276    0.00000022
     atom  170 type  1   force =    -0.00001131    0.00000072    0.00000280
     atom  171 type  1   force =    -0.00000703    0.00000591   -0.00000171
     atom  172 type  1   force =    -0.00000207    0.00000914    0.00000109
     atom  173 type  1   force =    -0.00000796   -0.00000287    0.00000490
     atom  174 type  1   force =    -0.00000348    0.00000191    0.00000935
     atom  175 type  1   force =    -0.00000701    0.00000331    0.00000096
     atom  176 type  1   force =    -0.00000613    0.00000410    0.00000589
     atom  177 type  1   force =    -0.00000100    0.00000036   -0.00000223
     atom  178 type  1   force =     0.00000068    0.00000384    0.00000167
     atom  179 type  1   force =    -0.00000219    0.00000498    0.00000585
     atom  180 type  1   force =     0.00000067    0.00000575    0.00000875
     atom  181 type  1   force =     0.00000242    0.00000215   -0.00000098
     atom  182 type  1   force =     0.00000423    0.00000618   -0.00000192
     atom  183 type  1   force =     0.00000112    0.00000758    0.00000019
     atom  184 type  1   force =     0.00000175    0.00000973    0.00000009
     atom  185 type  1   force =    -0.00000411   -0.00000146   -0.00000002
     atom  186 type  1   force =    -0.00000364    0.00000386   -0.00000306
     atom  187 type  1   force =     0.00000316    0.00000992   -0.00000587
     atom  188 type  1   force =     0.00000283    0.00001045   -0.00000876
     atom  189 type  1   force =    -0.00000466   -0.00000040   -0.00000586
     atom  190 type  1   force =    -0.00000100    0.00000416   -0.00000601
     atom  191 type  1   force =    -0.00000719    0.00000626   -0.00000180
     atom  192 type  1   force =    -0.00000745    0.00000957   -0.00000382
     atom  193 type  1   force =    -0.00000645    0.00000695   -0.00000348
     atom  194 type  1   force =    -0.00000540    0.00000674   -0.00000159
     atom  195 type  1   force =    -0.00000476    0.00000516   -0.00000650
     atom  196 type  1   force =    -0.00000268    0.00000121   -0.00000202
     atom  197 type  1   force =    -0.00000464    0.00000835    0.00000316
     atom  198 type  1   force =    -0.00000148    0.00000475    0.00000639
     atom  199 type  1   force =    -0.00000228    0.00000241   -0.00000118
     atom  200 type  1   force =    -0.00000300   -0.00000216    0.00000213
     atom  201 type  1   force =    -0.00000214    0.00000515    0.00000331
     atom  202 type  1   force =    -0.00000200    0.00000253    0.00000763
     atom  203 type  1   force =    -0.00000208    0.00000108    0.00000462
     atom  204 type  1   force =    -0.00000225   -0.00000405    0.00000512
     atom  205 type  1   force =     0.00000067    0.00000661    0.00000422
     atom  206 type  1   force =    -0.00000217    0.00000075    0.00000190
     atom  207 type  1   force =     0.00000078    0.00000005    0.00000404
     atom  208 type  1   force =    -0.00000208   -0.00000562    0.00000374
     atom  209 type  1   force =     0.00000087    0.00000999   -0.00000188
     atom  210 type  1   force =    -0.00000099    0.00000725   -0.00000369
     atom  211 type  1   force =    -0.00000339   -0.00000009   -0.00000114
     atom  212 type  1   force =    -0.00000616   -0.00000740   -0.00000239
     atom  213 type  1   force =    -0.00000135    0.00001166   -0.00000904
     atom  214 type  1   force =    -0.00000214    0.00000753   -0.00000778
     atom  215 type  1   force =    -0.00000009    0.00000428   -0.00000544
     atom  216 type  2   force =     0.00000001   -0.00000293   -0.00000050
     atom  217 type  2   force =    -0.00000120   -0.00000290   -0.00000043
     atom  218 type  2   force =    -0.00000112    0.00000089    0.00000013
     atom  219 type  2   force =     0.00000034   -0.00000117   -0.00000098

     Total force =     0.048609     Total SCF correction =     0.000112


     Computing stress (Cartesian axis) and pressure

          total   stress  (Ry/bohr**3)                   (kbar)     P=    2.22
   0.00005043  -0.00018431   0.00018441          7.42    -27.11     27.13
  -0.00018431  -0.00012634   0.00007120        -27.11    -18.58     10.47
   0.00018441   0.00007120   0.00012119         27.13     10.47     17.83

     kinetic stress (kbar)   2242.16    -26.93     25.84
                              -26.93   2211.78     10.78
                               25.84     10.78   2252.42

     local   stress (kbar)  -1172.03     52.81    -66.91
                               52.81  -1333.32    -29.00
                              -66.91    -29.00  -1136.91

     nonloc. stress (kbar)   2538.80     -3.64      1.22
                               -3.64   2553.86      1.50
                                1.22      1.50   2535.94

     hartree stress (kbar)    198.60    -19.97     26.03
                              -19.97    221.56     10.50
                               26.03     10.50    195.94

     exc-cor stress (kbar)   -793.08      0.15     -0.00
                                0.15   -792.52     -0.04
                               -0.00     -0.04   -793.31

     corecor stress (kbar)      0.00      0.00      0.00
                                0.00      0.00      0.00
                                0.00      0.00      0.00

     ewald   stress (kbar)  -3007.04    -29.52     40.95
                              -29.52  -2879.95     16.73
                               40.95     16.73  -3036.25

     hubbard stress (kbar)      0.00      0.00      0.00
                                0.00      0.00      0.00
                                0.00      0.00      0.00

     london  stress (kbar)      0.00      0.00      0.00
                                0.00      0.00      0.00
                                0.00      0.00      0.00

     DFT-D3  stress (kbar)      0.00      0.00      0.00
                                0.00      0.00      0.00
                                0.00      0.00      0.00

     XDM     stress (kbar)      0.00      0.00      0.00
                                0.00      0.00      0.00
                                0.00      0.00      0.00

     dft-nl  stress (kbar)      0.00      0.00      0.00
                                0.00      0.00      0.00
                                0.00      0.00      0.00

     TS-vdW  stress (kbar)      0.00      0.00      0.00
                                0.00      0.00      0.00
                                0.00      0.00      0.00



     Writing output data file vacancy_optimize2.save

     init_run     :    238.36s CPU    245.73s WALL (       1 calls)
     electrons    :   9828.46s CPU  10173.24s WALL (       1 calls)
     forces       :     89.94s CPU     90.60s WALL (       1 calls)
     stress       :    858.52s CPU    862.11s WALL (       1 calls)

     Called by init_run:
     wfcinit      :    225.28s CPU    232.54s WALL (       1 calls)
     wfcinit:atom :      0.79s CPU      1.58s WALL (       8 calls)
     wfcinit:wfcr :    213.68s CPU    219.36s WALL (       8 calls)
     potinit      :      5.30s CPU      5.33s WALL (       1 calls)

     Called by electrons:
     c_bands      :   9054.77s CPU   9369.91s WALL (      20 calls)
     sum_band     :    766.92s CPU    794.97s WALL (      20 calls)
     v_of_rho     :      5.62s CPU      5.82s WALL (      20 calls)
     v_h          :      0.37s CPU      0.38s WALL (      20 calls)
     v_xc         :      5.25s CPU      5.44s WALL (      20 calls)
     mix_rho      :      1.15s CPU      1.39s WALL (      20 calls)

     Called by c_bands:
     init_us_2    :     34.29s CPU     36.44s WALL (     344 calls)
     cegterg      :   8991.10s CPU   9247.60s WALL (     160 calls)

     Called by sum_band:

     Called by *egterg:
     h_psi        :   5082.57s CPU   5208.79s WALL (     895 calls)
     g_psi        :     12.64s CPU     12.66s WALL (     727 calls)
     cdiaghg      :   1460.31s CPU   1462.90s WALL (     879 calls)
     cegterg:over :   1078.36s CPU   1086.60s WALL (     727 calls)
     cegterg:upda :    688.52s CPU    694.99s WALL (     727 calls)
     cegterg:last :    400.95s CPU    404.26s WALL (     160 calls)

     Called by h_psi:
     h_psi:pot    :   5059.06s CPU   5182.47s WALL (     895 calls)
     h_psi:calbec :    906.53s CPU    916.09s WALL (     895 calls)
     vloc_psi     :   3258.34s CPU   3370.03s WALL (     895 calls)
     add_vuspsi   :    894.18s CPU    896.34s WALL (     895 calls)

     General routines
     calbec       :   1004.61s CPU   1014.47s WALL (     935 calls)
     fft          :      3.45s CPU      3.72s WALL (     229 calls)
     fftw         :   3561.24s CPU   3694.00s WALL (  484294 calls)

     Parallel routines
     fft_scatt_xy :    535.83s CPU    537.74s WALL (  484523 calls)
     fft_scatt_yz :    591.00s CPU    711.15s WALL (  484523 calls)

     PWSCF        :     3h 3m CPU        3h 9m WALL


   This run was terminated on:  11:28:44   7Nov2020            

=------------------------------------------------------------------------------=
   JOB DONE.
=------------------------------------------------------------------------------=
