
     Program PWSCF v.6.2 (svn rev. 14038) starts on  7Nov2020 at 21: 9:41 

     This program is part of the open-source Quantum ESPRESSO suite
     for quantum simulation of materials; please cite
         "P. Giannozzi et al., J. Phys.:Condens. Matter 21 395502 (2009);
         "P. Giannozzi et al., J. Phys.:Condens. Matter 29 465901 (2017);
          URL http://www.quantum-espresso.org", 
     in publications or presentations arising from this work. More details at
     http://www.quantum-espresso.org/quote

     Parallel version (MPI), running on     8 processors

     MPI processes distributed on     1 nodes
     R & G space division:  proc/nbgrp/npool/nimage =       8
     Waiting for input...
     Reading input from standard input
Warning: card &IONS ignored
Warning: card / ignored

     Current dimensions of program PWSCF are:
     Max number of different atomic species (ntypx) = 10
     Max number of k-points (npk) =  40000
     Max angular momentum in pseudopotentials (lmaxx) =  3

     Subspace diagonalization in iterative solution of the eigenvalue problem:
     a serial algorithm will be used


     Parallelization info
     --------------------
     sticks:   dense  smooth     PW     G-vecs:    dense   smooth      PW
     Min        1568    1568    413               138734   138734   18761
     Max        1569    1569    414               138737   138737   18762
     Sum       12551   12551   3307              1109889  1109889  150093



     bravais-lattice index     =            0
     lattice parameter (alat)  =      30.2786  a.u.
     unit-cell volume          =   30184.2489 (a.u.)^3
     number of atoms/cell      =          219
     number of atomic types    =            2
     number of electrons       =       864.00
     number of Kohn-Sham states=          518
     kinetic-energy cutoff     =      42.0000  Ry
     charge density cutoff     =     168.0000  Ry
     convergence threshold     =      1.0E-08
     mixing beta               =       0.3000
     number of iterations used =            8  plain     mixing
     Exchange-correlation      = SLA-PW-PBX-PBC ( 1  4  3  4 0 0)

     celldm(1)=  30.278602  celldm(2)=   0.000000  celldm(3)=   0.000000
     celldm(4)=   0.000000  celldm(5)=   0.000000  celldm(6)=   0.000000

     crystal axes: (cart. coord. in units of alat)
               a(1) = (   1.000000   0.000000   0.000000 )  
               a(2) = (  -0.029468   1.024572   0.000000 )  
               a(3) = (   0.056888   0.010279   1.061281 )  

     reciprocal axes: (cart. coord. in units 2 pi/alat)
               b(1) = (  1.000000  0.028761 -0.053882 )  
               b(2) = (  0.000000  0.976017 -0.009453 )  
               b(3) = (  0.000000 -0.000000  0.942258 )  


     PseudoPot. # 1 for Si read from file:
     ./Si.pbe-hgh.UPF
     MD5 check sum: 9a9f0f6e09139bfdb36b03ff6bc35900
     Pseudo is Norm-conserving, Zval =  4.0
     Generated in analytical, separable form
     Using radial grid of 1141 points,  3 beta functions with: 
                l(1) =   0
                l(2) =   0
                l(3) =   1

     PseudoPot. # 2 for H  read from file:
     ./H.pbe-hgh.UPF
     MD5 check sum: 5f350582108a937bec95f27f5610ab08
     Pseudo is Norm-conserving, Zval =  1.0
     Generated in analytical, separable form
     Using radial grid of  929 points,  0 beta functions with: 

     atomic species   valence    mass     pseudopotential
        Si             4.00    28.08000     Si( 1.00)
        H              1.00     1.00784     H ( 1.00)

     No symmetry found


                                    s                        frac. trans.

      isym =  1     identity                                     

 cryst.   s( 1) = (     1          0          0      )
                  (     0          1          0      )
                  (     0          0          1      )

 cart.    s( 1) = (  1.0000000  0.0000000 -0.0000000 )
                  (  0.0000000  1.0000000  0.0000000 )
                  (  0.0000000  0.0000000  1.0000000 )


   Cartesian axes

     site n.     atom                  positions (alat units)
         1           Si  tau(   1) = (   0.7738002   0.9473240   0.9722235  )
         2           Si  tau(   2) = (   0.0903950   0.0876467   0.1008290  )
         3           Si  tau(   3) = (   0.1594500   0.1695620   0.0002563  )
         4           Si  tau(   4) = (   0.2459420   0.2539181   0.0893240  )
         5           Si  tau(   5) = (   0.1801365   0.0018049   0.1813665  )
         6           Si  tau(   6) = (   0.2637087   0.0870931   0.2687471  )
         7           Si  tau(   7) = (   0.0047778   0.1763521   0.1800155  )
         8           Si  tau(   8) = (   0.0912555   0.2583034   0.2681231  )
         9           Si  tau(   9) = (   0.0199744   0.0045809   0.3540274  )
        10           Si  tau(  10) = (   0.1051107   0.0880569   0.4437374  )
        11           Si  tau(  11) = (   0.1818457   0.1755192   0.3545676  )
        12           Si  tau(  12) = (   0.2671125   0.2590587   0.4438468  )
        13           Si  tau(  13) = (   0.1960514   0.0058685   0.5302934  )
        14           Si  tau(  14) = (   0.2812699   0.0895241   0.6197944  )
        15           Si  tau(  15) = (   0.0241896   0.1768912   0.5301904  )
        16           Si  tau(  16) = (   0.1094282   0.2604963   0.6197923  )
        17           Si  tau(  17) = (   0.0380572   0.0078544   0.7058420  )
        18           Si  tau(  18) = (   0.1223430   0.0919194   0.7953260  )
        19           Si  tau(  19) = (   0.2005097   0.1784181   0.7064565  )
        20           Si  tau(  20) = (   0.2851577   0.2615796   0.7972257  )
        21           Si  tau(  21) = (   0.2135774   0.0120094   0.8831311  )
        22           Si  tau(  22) = (   0.2989264   0.0930481   0.9748841  )
        23           Si  tau(  23) = (   0.0429999   0.1817246   0.8817673  )
        24           Si  tau(  24) = (   0.1269565   0.2631306   0.9744033  )
        25           Si  tau(  25) = (   0.0476542   0.3529890   1.0607619  )
        26           Si  tau(  26) = (   0.0761225   0.4258042   0.0895153  )
        27           Si  tau(  27) = (   0.2098795   0.5229069   1.0609476  )
        28           Si  tau(  28) = (   0.2386349   0.5957623   0.0897274  )
        29           Si  tau(  29) = (   0.1671028   0.3440258   0.1765589  )
        30           Si  tau(  30) = (   0.2526021   0.4274596   0.2664579  )
        31           Si  tau(  31) = (  -0.0044698   0.5144682   0.1765292  )
        32           Si  tau(  32) = (   0.0807978   0.5975808   0.2669100  )
        33           Si  tau(  33) = (   0.0097151   0.3462713   0.3541431  )
        34           Si  tau(  34) = (   0.0952282   0.4293386   0.4435432  )
        35           Si  tau(  35) = (   0.1719593   0.5160417   0.3535922  )
        36           Si  tau(  36) = (   0.2570810   0.5999398   0.4433002  )
        37           Si  tau(  37) = (   0.1862295   0.3476829   0.5304600  )
        38           Si  tau(  38) = (   0.2713229   0.4310227   0.6204970  )
        39           Si  tau(  39) = (   0.0143569   0.5175827   0.5301607  )
        40           Si  tau(  40) = (   0.1000001   0.6004583   0.6195429  )
        41           Si  tau(  41) = (   0.0287339   0.3493362   0.7065626  )
        42           Si  tau(  42) = (   0.1138474   0.4322600   0.7971196  )
        43           Si  tau(  43) = (   0.1906593   0.5194930   0.7076122  )
        44           Si  tau(  44) = (   0.2750990   0.6036620   0.7977818  )
        45           Si  tau(  45) = (   0.2044543   0.3500254   0.8844609  )
        46           Si  tau(  46) = (   0.2900188   0.4337120   0.9740149  )
        47           Si  tau(  47) = (   0.0334839   0.5214362   0.8838156  )
        48           Si  tau(  48) = (   0.1189174   0.6046368   0.9737475  )
        49           Si  tau(  49) = (   0.0379731   0.6931706   1.0608648  )
        50           Si  tau(  50) = (   0.0670728   0.7651404   0.0903517  )
        51           Si  tau(  51) = (   0.1456446   0.8526705   0.0039025  )
        52           Si  tau(  52) = (   0.2293859   0.9392234   0.0915135  )
        53           Si  tau(  53) = (   0.1581012   0.6841662   0.1771755  )
        54           Si  tau(  54) = (   0.2428650   0.7687930   0.2666988  )
        55           Si  tau(  55) = (  -0.0088876   0.8543869   0.1798574  )
        56           Si  tau(  56) = (   0.0728942   0.9399066   0.2697415  )
        57           Si  tau(  57) = (   0.0004030   0.6859173   0.3544901  )
        58           Si  tau(  58) = (   0.0853234   0.7699051   0.4440388  )
        59           Si  tau(  59) = (   0.1630354   0.8568350   0.3552935  )
        60           Si  tau(  60) = (   0.2478236   0.9413638   0.4442161  )
        61           Si  tau(  61) = (   0.1765400   0.6884241   0.5306946  )
        62           Si  tau(  62) = (   0.2610311   0.7725591   0.6208514  )
        63           Si  tau(  63) = (   0.0045669   0.8594314   0.5300705  )
        64           Si  tau(  64) = (   0.0895293   0.9433443   0.6197127  )
        65           Si  tau(  65) = (   0.0187480   0.6889253   0.7051606  )
        66           Si  tau(  66) = (   0.1022430   0.7729393   0.7953037  )
        67           Si  tau(  67) = (   0.1799687   0.8620247   0.7075920  )
        68           Si  tau(  68) = (   0.2656952   0.9471359   0.7965528  )
        69           Si  tau(  69) = (   0.1945335   0.6935140   0.8845404  )
        70           Si  tau(  70) = (   0.2814947   0.7752674   0.9758053  )
        71           Si  tau(  71) = (   1.0180208   0.8597879   0.8796861  )
        72           Si  tau(  72) = (   0.1252176   0.9253604   0.9553109  )
        73           Si  tau(  73) = (   0.3904691   0.0111525   1.0610028  )
        74           Si  tau(  74) = (   0.4188631   0.0844920   0.0894202  )
        75           Si  tau(  75) = (   0.5525551   0.1817222   1.0608319  )
        76           Si  tau(  76) = (   0.5809057   0.2550735   0.0895079  )
        77           Si  tau(  77) = (   0.5101525   0.0025691   0.1762639  )
        78           Si  tau(  78) = (   0.5954143   0.0859565   0.2663316  )
        79           Si  tau(  79) = (   0.3381829   0.1732073   0.1763774  )
        80           Si  tau(  80) = (   0.4237545   0.2568691   0.2661247  )
        81           Si  tau(  81) = (   0.3541321   0.0038862   0.3544583  )
        82           Si  tau(  82) = (   0.4387559   0.0879843   0.4436271  )
        83           Si  tau(  83) = (   0.5147585   0.1749063   0.3530690  )
        84           Si  tau(  84) = (   0.5997245   0.2586814   0.4429765  )
        85           Si  tau(  85) = (   0.5292724   0.0057225   0.5301416  )
        86           Si  tau(  86) = (   0.6135891   0.0896744   0.6199706  )
        87           Si  tau(  87) = (   0.3579306   0.1767829   0.5303273  )
        88           Si  tau(  88) = (   0.4427677   0.2603007   0.6204343  )
        89           Si  tau(  89) = (   0.3727477   0.0077802   0.7058494  )
        90           Si  tau(  90) = (   0.4568193   0.0908854   0.7971185  )
        91           Si  tau(  91) = (   0.5334538   0.1783067   0.7075485  )
        92           Si  tau(  92) = (   0.6186815   0.2620372   0.7971875  )
        93           Si  tau(  93) = (   0.5479527   0.0092450   0.8842221  )
        94           Si  tau(  94) = (   0.6333978   0.0930617   0.9738769  )
        95           Si  tau(  95) = (   0.3758111   0.1793850   0.8842560  )
        96           Si  tau(  96) = (   0.4613098   0.2633069   0.9737740  )
        97           Si  tau(  97) = (   0.3802844   0.3512881   1.0611694  )
        98           Si  tau(  98) = (   0.4090845   0.4249731   0.0893845  )
        99           Si  tau(  99) = (   0.5429061   0.5223071   1.0610092  )
       100           Si  tau( 100) = (   0.5711171   0.5960580   0.0893679  )
       101           Si  tau( 101) = (   0.5005559   0.3439665   0.1764730  )
       102           Si  tau( 102) = (   0.5857656   0.4277873   0.2662350  )
       103           Si  tau( 103) = (   0.3295334   0.5142536   0.1766980  )
       104           Si  tau( 104) = (   0.4146593   0.5983538   0.2663157  )
       105           Si  tau( 105) = (   0.3435048   0.3456544   0.3533874  )
       106           Si  tau( 106) = (   0.4285244   0.4294385   0.4432758  )
       107           Si  tau( 107) = (   0.5053253   0.5164631   0.3534086  )
       108           Si  tau( 108) = (   0.5904457   0.6003983   0.4429277  )
       109           Si  tau( 109) = (   0.5192240   0.3473160   0.5302361  )
       110           Si  tau( 110) = (   0.6042562   0.4311708   0.6199133  )
       111           Si  tau( 111) = (   0.3478125   0.5180358   0.5303953  )
       112           Si  tau( 112) = (   0.4326354   0.6019689   0.6202200  )
       113           Si  tau( 113) = (   0.3619204   0.3487912   0.7074180  )
       114           Si  tau( 114) = (   0.4470028   0.4326549   0.7969540  )
       115           Si  tau( 115) = (   0.5234725   0.5197549   0.7069383  )
       116           Si  tau( 116) = (   0.6085318   0.6033762   0.7967343  )
       117           Si  tau( 117) = (   0.5377962   0.3506235   0.8840162  )
       118           Si  tau( 118) = (   0.6233088   0.4338343   0.9738398  )
       119           Si  tau( 119) = (   0.3663006   0.5211174   0.8841096  )
       120           Si  tau( 120) = (   0.4524114   0.6040155   0.9737135  )
       121           Si  tau( 121) = (   0.3159918   0.6822681   0.0000277  )
       122           Si  tau( 122) = (   0.4003112   0.7669639   0.0896940  )
       123           Si  tau( 123) = (   0.5330533   0.8647935   1.0608500  )
       124           Si  tau( 124) = (   0.5613286   0.9385315   0.0891527  )
       125           Si  tau( 125) = (   0.4914877   0.6855383   0.1765621  )
       126           Si  tau( 126) = (   0.5768049   0.7699088   0.2656418  )
       127           Si  tau( 127) = (   0.3200480   0.8557651   0.1771225  )
       128           Si  tau( 128) = (   0.4049057   0.9398244   0.2667508  )
       129           Si  tau( 129) = (   0.3338576   0.6868286   0.3533747  )
       130           Si  tau( 130) = (   0.4188367   0.7706481   0.4431049  )
       131           Si  tau( 131) = (   0.4956889   0.8577034   0.3532420  )
       132           Si  tau( 132) = (   0.5802621   0.9414839   0.4431760  )
       133           Si  tau( 133) = (   0.5095256   0.6887158   0.5301374  )
       134           Si  tau( 134) = (   0.5945652   0.7723646   0.6199154  )
       135           Si  tau( 135) = (   0.3382834   0.8590048   0.5306659  )
       136           Si  tau( 136) = (   0.4235025   0.9428545   0.6198177  )
       137           Si  tau( 137) = (   0.3518835   0.6904791   0.7076483  )
       138           Si  tau( 138) = (   0.4366281   0.7746234   0.7974857  )
       139           Si  tau( 139) = (   0.5137861   0.8608868   0.7071038  )
       140           Si  tau( 140) = (   0.5985130   0.9449155   0.7966452  )
       141           Si  tau( 141) = (   0.5278166   0.6920935   0.8837466  )
       142           Si  tau( 142) = (   0.6129554   0.7755083   0.9735893  )
       143           Si  tau( 143) = (   0.3556251   0.8639497   0.8845489  )
       144           Si  tau( 144) = (   0.4419269   0.9467928   0.9741794  )
       145           Si  tau( 145) = (   0.7246259   0.0113731   1.0606536  )
       146           Si  tau( 146) = (   0.7525387   0.0852969   0.0888774  )
       147           Si  tau( 147) = (   0.8863504   0.1822831   1.0608765  )
       148           Si  tau( 148) = (   0.9151969   0.2552435   0.0892863  )
       149           Si  tau( 149) = (   0.8448502   0.0066233   0.1766215  )
       150           Si  tau( 150) = (   0.9294159   0.0876629   0.2685911  )
       151           Si  tau( 151) = (   0.6719573   0.1732423   0.1766077  )
       152           Si  tau( 152) = (   0.7572457   0.2568648   0.2663115  )
       153           Si  tau( 153) = (   0.6860016   0.0044082   0.3537621  )
       154           Si  tau( 154) = (   0.7708302   0.0878572   0.4436377  )
       155           Si  tau( 155) = (   0.8474594   0.1755113   0.3545962  )
       156           Si  tau( 156) = (   0.9331151   0.2590768   0.4438117  )
       157           Si  tau( 157) = (   0.8620577   0.0059149   0.5300259  )
       158           Si  tau( 158) = (   0.9470811   0.0898590   0.6194760  )
       159           Si  tau( 159) = (   0.6903051   0.1767846   0.5302828  )
       160           Si  tau( 160) = (   0.7754646   0.2607111   0.6196501  )
       161           Si  tau( 161) = (   0.7041790   0.0073223   0.7061476  )
       162           Si  tau( 162) = (   0.7888529   0.0920160   0.7949864  )
       163           Si  tau( 163) = (   0.8665747   0.1788811   0.7061275  )
       164           Si  tau( 164) = (   0.9515226   0.2627678   0.7959277  )
       165           Si  tau( 165) = (   0.8484597   1.0329769   0.8799472  )
       166           Si  tau( 166) = (   0.9593500   0.0968479   0.9653612  )
       167           Si  tau( 167) = (   0.7099538   0.1801366   0.8840024  )
       168           Si  tau( 168) = (   0.7954299   0.2637541   0.9737167  )
       169           Si  tau( 169) = (   0.7145167   0.3521103   1.0606865  )
       170           Si  tau( 170) = (   0.7426827   0.4255565   0.0893276  )
       171           Si  tau( 171) = (   0.8758884   0.5230624   1.0606016  )
       172           Si  tau( 172) = (   0.9043158   0.5960081   0.0895028  )
       173           Si  tau( 173) = (   0.8338790   0.3437203   0.1762321  )
       174           Si  tau( 174) = (   0.9188702   0.4274297   0.2663327  )
       175           Si  tau( 175) = (   0.6625685   0.5147468   0.1763148  )
       176           Si  tau( 176) = (   0.7480580   0.5989735   0.2654518  )
       177           Si  tau( 177) = (   0.6765172   0.3457063   0.3531433  )
       178           Si  tau( 178) = (   0.7615257   0.4295601   0.4428258  )
       179           Si  tau( 179) = (   0.8382313   0.5164832   0.3528430  )
       180           Si  tau( 180) = (   0.9232436   0.5991903   0.4435623  )
       181           Si  tau( 181) = (   0.8522766   0.3478408   0.5301565  )
       182           Si  tau( 182) = (   0.9375664   0.4310190   0.6200024  )
       183           Si  tau( 183) = (   0.6809963   0.5181803   0.5299676  )
       184           Si  tau( 184) = (   0.7660909   0.6017853   0.6197785  )
       185           Si  tau( 185) = (   0.6949827   0.3491017   0.7069956  )
       186           Si  tau( 186) = (   0.7801819   0.4326536   0.7967142  )
       187           Si  tau( 187) = (   0.8568632   0.5196235   0.7068067  )
       188           Si  tau( 188) = (   0.9424401   0.6028657   0.7962811  )
       189           Si  tau( 189) = (   0.8714892   0.3510775   0.8837020  )
       190           Si  tau( 190) = (   0.9566669   0.4345479   0.9736838  )
       191           Si  tau( 191) = (   0.6993006   0.5210718   0.8836394  )
       192           Si  tau( 192) = (   0.7845539   0.6043940   0.9733314  )
       193           Si  tau( 193) = (   0.7037864   0.6931415   1.0599829  )
       194           Si  tau( 194) = (   0.7326268   0.7677189   0.0872496  )
       195           Si  tau( 195) = (   0.8655208   0.8649323   1.0570920  )
       196           Si  tau( 196) = (   0.8824647   0.9215955   0.1057817  )
       197           Si  tau( 197) = (   0.8246525   0.6868536   0.1754785  )
       198           Si  tau( 198) = (   0.9109257   0.7684307   0.2672624  )
       199           Si  tau( 199) = (   0.6536944   0.8574576   0.1755274  )
       200           Si  tau( 200) = (   0.7383386   0.9422429   0.2656450  )
       201           Si  tau( 201) = (   0.6671738   0.6873550   0.3527124  )
       202           Si  tau( 202) = (   0.7523259   0.7712754   0.4421805  )
       203           Si  tau( 203) = (   0.8293822   0.8589118   0.3523336  )
       204           Si  tau( 204) = (   0.9137452   0.9418116   0.4434817  )
       205           Si  tau( 205) = (   0.8425251   0.6886960   0.5294677  )
       206           Si  tau( 206) = (   0.9277945   0.7718006   0.6192308  )
       207           Si  tau( 207) = (   0.6710477   0.8592298   0.5295654  )
       208           Si  tau( 208) = (   0.7555675   0.9430825   0.6192351  )
       209           Si  tau( 209) = (   0.6852939   0.6902557   0.7067929  )
       210           Si  tau( 210) = (   0.7703978   0.7739292   0.7964785  )
       211           Si  tau( 211) = (   0.8463219   0.8604657   0.7054090  )
       212           Si  tau( 212) = (   0.9305427   0.9454529   0.7940493  )
       213           Si  tau( 213) = (   0.8611189   0.6911919   0.8831226  )
       214           Si  tau( 214) = (   0.9459362   0.7739040   0.9733972  )
       215           Si  tau( 215) = (   0.6891854   0.8624230   0.8832765  )
       216           H   tau( 216) = (   1.0194048   0.0428546   1.0181971  )
       217           H   tau( 217) = (   0.0295466   0.0314348   0.0528644  )
       218           H   tau( 218) = (   0.8295928   0.8653272   0.1612319  )
       219           H   tau( 219) = (   0.1790505   0.8687380   0.9006793  )

   Crystallographic axes

     site n.     atom                  positions (cryst. coord.)
         1           Si  tau(   1) = (  0.7486610  0.9154140  0.9160850  )
         2           Si  tau(   2) = (  0.0874830  0.0845915  0.0950069  )
         3           Si  tau(   3) = (  0.1643130  0.1654930  0.0002415  )
         4           Si  tau(   4) = (  0.2484320  0.2469840  0.0841662  )
         5           Si  tau(   5) = (  0.1704160  0.0000471  0.1708940  )
         6           Si  tau(   6) = (  0.2517330  0.0824639  0.2532290  )
         7           Si  tau(   7) = (  0.0001503  0.1704210  0.1696210  )
         8           Si  tau(   8) = (  0.0842376  0.2495740  0.2526410  )
         9           Si  tau(   9) = (  0.0010305  0.0011244  0.3335850  )
        10           Si  tau(  10) = (  0.0837339  0.0817504  0.4181150  )
        11           Si  tau(  11) = (  0.1677890  0.1679580  0.3340940  )
        12           Si  tau(  12) = (  0.2506480  0.2486500  0.4182180  )
        13           Si  tau(  13) = (  0.1676470  0.0007149  0.4996730  )
        14           Si  tau(  14) = (  0.2504490  0.0815182  0.5840060  )
        15           Si  tau(  15) = (  0.0007095  0.1676370  0.4995760  )
        16           Si  tau(  16) = (  0.0835248  0.2483900  0.5840040  )
        17           Si  tau(  17) = (  0.0002510  0.0009937  0.6650850  )
        18           Si  tau(  18) = (  0.0821330  0.0821967  0.7494020  )
        19           Si  tau(  19) = (  0.1675760  0.1674610  0.6656640  )
        20           Si  tau(  20) = (  0.2497250  0.2477700  0.7511920  )
        21           Si  tau(  21) = (  0.1663380  0.0033732  0.8321370  )
        22           Si  tau(  22) = (  0.2490740  0.0816010  0.9185920  )
        23           Si  tau(  23) = (  0.0007152  0.1690310  0.8308520  )
        24           Si  tau(  24) = (  0.0820217  0.2476090  0.9181390  )
        25           Si  tau(  25) = (  0.0006506  0.3344960  0.9995110  )
        26           Si  tau(  26) = (  0.0835458  0.4147460  0.0843465  )
        27           Si  tau(  27) = (  0.1677530  0.5003370  0.9996860  )
        28           Si  tau(  28) = (  0.2509350  0.5806260  0.0845463  )
        29           Si  tau(  29) = (  0.1674840  0.3341060  0.1663640  )
        30           Si  tau(  30) = (  0.2505390  0.4146890  0.2510720  )
        31           Si  tau(  31) = (  0.0008151  0.5004610  0.1663360  )
        32           Si  tau(  32) = (  0.0836032  0.5807260  0.2514980  )
        33           Si  tau(  33) = (  0.0005923  0.3346190  0.3336940  )
        34           Si  tau(  34) = (  0.0836775  0.4148490  0.4179320  )
        35           Si  tau(  35) = (  0.1677490  0.5003230  0.3331750  )
        36           Si  tau(  36) = (  0.2504500  0.5813610  0.4177030  )
        37           Si  tau(  37) = (  0.1676470  0.3343300  0.4998300  )
        38           Si  tau(  38) = (  0.2502860  0.4148200  0.5846680  )
        39           Si  tau(  39) = (  0.0006770  0.5001580  0.4995480  )
        40           Si  tau(  40) = (  0.0838878  0.5802010  0.5837690  )
        41           Si  tau(  41) = (  0.0007102  0.3342790  0.6657640  )
        42           Si  tau(  42) = (  0.0833293  0.4143580  0.7510920  )
        43           Si  tau(  43) = (  0.1674730  0.5003450  0.6667530  )
        44           Si  tau(  44) = (  0.2494750  0.5816430  0.7517160  )
        45           Si  tau(  45) = (  0.1668650  0.3332700  0.8333900  )
        46           Si  tau(  46) = (  0.2500110  0.4141030  0.9177730  )
        47           Si  tau(  47) = (  0.0008592  0.5005760  0.8327820  )
        48           Si  tau(  48) = (  0.0838400  0.5809310  0.9175210  )
        49           Si  tau(  49) = (  0.0007480  0.6665180  0.9996080  )
        50           Si  tau(  50) = (  0.0842107  0.7459360  0.0851346  )
        51           Si  tau(  51) = (  0.1699580  0.8321840  0.0036772  )
        52           Si  tau(  52) = (  0.2514680  0.9158330  0.0862293  )
        53           Si  tau(  53) = (  0.1682320  0.6660830  0.1669450  )
        54           Si  tau(  54) = (  0.2506060  0.7478340  0.2512990  )
        55           Si  tau(  55) = (  0.0059944  0.8321960  0.1694720  )
        56           Si  tau(  56) = (  0.0853927  0.9148150  0.2541660  )
        57           Si  tau(  57) = (  0.0010301  0.6661160  0.3340210  )
        58           Si  tau(  58) = (  0.0835410  0.7472430  0.4183990  )
        59           Si  tau(  59) = (  0.1685350  0.8329270  0.3347780  )
        60           Si  tau(  60) = (  0.2509630  0.9145880  0.4185660  )
        61           Si  tau(  61) = (  0.1677450  0.6668970  0.5000510  )
        62           Si  tau(  62) = (  0.2497980  0.7481620  0.5850020  )
        63           Si  tau(  63) = (  0.0007238  0.8338090  0.4994630  )
        64           Si  tau(  64) = (  0.0832696  0.9148620  0.5839290  )
        65           Si  tau(  65) = (  0.0005668  0.6657370  0.6644430  )
        66           Si  tau(  66) = (  0.0816211  0.7468840  0.7493810  )
        67           Si  tau(  67) = (  0.1666350  0.8346620  0.6667340  )
        68           Si  tau(  68) = (  0.2500160  0.9168910  0.7505580  )
        69           Si  tau(  69) = (  0.1668190  0.6685200  0.8334650  )
        70           Si  tau(  70) = (  0.2512140  0.7474500  0.9194600  )
        71           Si  tau(  71) = (  0.9953500  0.8308520  0.8288910  )
        72           Si  tau(  72) = (  0.1003580  0.8941370  0.9001490  )
        73           Si  tau(  73) = (  0.3336210  0.0008554  0.9997380  )
        74           Si  tau(  74) = (  0.4164750  0.0816203  0.0842569  )
        75           Si  tau(  75) = (  0.5006220  0.1673360  0.9995770  )
        76           Si  tau(  76) = (  0.5834190  0.2481100  0.0843395  )
        77           Si  tau(  77) = (  0.5007290  0.0008412  0.1660860  )
        78           Si  tau(  78) = (  0.5835360  0.0813774  0.2509530  )
        79           Si  tau(  79) = (  0.3336610  0.1673860  0.1661930  )
        80           Si  tau(  80) = (  0.4168030  0.2481930  0.2507580  )
        81           Si  tau(  81) = (  0.3351450  0.0004423  0.3339910  )
        82           Si  tau(  82) = (  0.4173830  0.0816806  0.4180110  )
        83           Si  tau(  83) = (  0.5007650  0.1673740  0.3326820  )
        84           Si  tau(  84) = (  0.5832960  0.2482900  0.4173980  )
        85           Si  tau(  85) = (  0.5008720  0.0005738  0.4995300  )
        86           Si  tau(  86) = (  0.5827630  0.0816632  0.5841720  )
        87           Si  tau(  87) = (  0.3344400  0.1675300  0.4997050  )
        88           Si  tau(  88) = (  0.4168240  0.2481930  0.5846090  )
        89           Si  tau(  89) = (  0.3349390  0.0009212  0.6650920  )
        90           Si  tau(  90) = (  0.4164830  0.0811706  0.7510910  )
        91           Si  tau(  91) = (  0.5004580  0.1673420  0.6666930  )
        92           Si  tau(  92) = (  0.5832640  0.2482170  0.7511560  )
        93           Si  tau(  93) = (  0.5005750  0.0006648  0.8331650  )
        94           Si  tau(  94) = (  0.5836000  0.0816238  0.9176430  )
        95           Si  tau(  95) = (  0.3333250  0.1667240  0.8331970  )
        96           Si  tau(  96) = (  0.4164140  0.2477870  0.9175460  )
        97           Si  tau(  97) = (  0.3332100  0.3328320  0.9998950  )
        98           Si  tau(  98) = (  0.4164910  0.4139360  0.0842232  )
        99           Si  tau(  99) = (  0.5007590  0.4997510  0.9997440  )
       100           Si  tau( 100) = (  0.5834450  0.5809180  0.0842076  )
       101           Si  tau( 101) = (  0.5009400  0.3340490  0.1662830  )
       102           Si  tau( 102) = (  0.5837240  0.4150110  0.2508620  )
       103           Si  tau( 103) = (  0.3348030  0.5002500  0.1664950  )
       104           Si  tau( 104) = (  0.4175190  0.5814860  0.2509380  )
       105           Si  tau( 105) = (  0.3344050  0.3340240  0.3329820  )
       106           Si  tau( 106) = (  0.4169910  0.4149490  0.4176800  )
       107           Si  tau( 107) = (  0.5011370  0.5007360  0.3330020  )
       108           Si  tau( 108) = (  0.5838480  0.5818120  0.4173520  )
       109           Si  tau( 109) = (  0.5006430  0.3339740  0.4996190  )
       110           Si  tau( 110) = (  0.5832550  0.4149700  0.5841180  )
       111           Si  tau( 111) = (  0.3341330  0.5005980  0.4997690  )
       112           Si  tau( 112) = (  0.4165300  0.5816690  0.5844070  )
       113           Si  tau( 113) = (  0.3338350  0.3337390  0.6665700  )
       114           Si  tau( 114) = (  0.4165050  0.4147450  0.7509360  )
       115           Si  tau( 115) = (  0.5003300  0.5006070  0.6661180  )
       116           Si  tau( 116) = (  0.5829560  0.5813740  0.7507290  )
       117           Si  tau( 117) = (  0.5002480  0.3338580  0.8329710  )
       118           Si  tau( 118) = (  0.5833140  0.4142240  0.9176080  )
       119           Si  tau( 119) = (  0.3336510  0.5002620  0.8330590  )
       120           Si  tau( 120) = (  0.4173180  0.5803250  0.9174890  )
       121           Si  tau( 121) = (  0.3356130  0.6659050  0.0000261  )
       122           Si  tau( 122) = (  0.4175370  0.7477220  0.0845149  )
       123           Si  tau( 123) = (  0.5007650  0.8340250  0.9995940  )
       124           Si  tau( 124) = (  0.5835180  0.9151800  0.0840048  )
       125           Si  tau( 125) = (  0.5016910  0.6674280  0.1663670  )
       126           Si  tau( 126) = (  0.5846350  0.7489330  0.2503030  )
       127           Si  tau( 127) = (  0.3351170  0.8335670  0.1668950  )
       128           Si  tau( 128) = (  0.4175630  0.9147630  0.2513480  )
       129           Si  tau( 129) = (  0.3345710  0.6670160  0.3329700  )
       130           Si  tau( 130) = (  0.4171260  0.7479770  0.4175190  )
       131           Si  tau( 131) = (  0.5013240  0.8337940  0.3328450  )
       132           Si  tau( 132) = (  0.5834610  0.9147150  0.4175860  )
       133           Si  tau( 133) = (  0.5007690  0.6671870  0.4995260  )
       134           Si  tau( 134) = (  0.5833770  0.7479810  0.5841200  )
       135           Si  tau( 135) = (  0.3343960  0.8333870  0.5000240  )
       136           Si  tau( 136) = (  0.4172230  0.9143830  0.5840280  )
       137           Si  tau( 137) = (  0.3336130  0.6672300  0.6667870  )
       138           Si  tau( 138) = (  0.4159370  0.7485070  0.7514370  )
       139           Si  tau( 139) = (  0.5004460  0.8335560  0.6662740  )
       140           Si  tau( 140) = (  0.5827650  0.9147230  0.7506450  )
       141           Si  tau( 141) = (  0.5001040  0.6671410  0.8327170  )
       142           Si  tau( 142) = (  0.5828010  0.7477060  0.9173720  )
       143           Si  tau( 143) = (  0.3328120  0.8348680  0.8334730  )
       144           Si  tau( 144) = (  0.4166670  0.9148770  0.9179280  )
       145           Si  tau( 145) = (  0.6678030  0.0010740  0.9994090  )
       146           Si  tau( 146) = (  0.7502030  0.0824111  0.0837454  )
       147           Si  tau( 147) = (  0.8344310  0.1678830  0.9996190  )
       148           Si  tau( 148) = (  0.9177270  0.2482780  0.0841307  )
       149           Si  tau( 149) = (  0.8355240  0.0047949  0.1664230  )
       150           Si  tau( 150) = (  0.9174650  0.0830215  0.2530820  )
       151           Si  tau( 151) = (  0.6674240  0.1674180  0.1664100  )
       152           Si  tau( 152) = (  0.7502840  0.2481870  0.2509340  )
       153           Si  tau( 153) = (  0.6670670  0.0009584  0.3333350  )
       154           Si  tau( 154) = (  0.7494530  0.0815564  0.4180210  )
       155           Si  tau( 155) = (  0.8334010  0.1679500  0.3341210  )
       156           Si  tau( 156) = (  0.9166530  0.2486680  0.4181850  )
       157           Si  tau( 157) = (  0.8336690  0.0007627  0.4994210  )
       158           Si  tau( 158) = (  0.9162870  0.0818480  0.5837060  )
       159           Si  tau( 159) = (  0.6668170  0.1675320  0.4996630  )
       160           Si  tau( 160) = (  0.7495750  0.2486010  0.5838700  )
       161           Si  tau( 161) = (  0.6663410  0.0004715  0.6653730  )
       162           Si  tau( 162) = (  0.7486640  0.0822942  0.7490820  )
       163           Si  tau( 163) = (  0.8336720  0.1679160  0.6653540  )
       164           Si  tau( 164) = (  0.9161940  0.2489420  0.7499690  )
       165           Si  tau( 165) = (  0.8307560  0.9998850  0.8291370  )
       166           Si  tau( 166) = (  0.9101200  0.0853997  0.9096190  )
       167           Si  tau( 167) = (  0.6675030  0.1674600  0.8329580  )
       168           Si  tau( 168) = (  0.7505500  0.2482240  0.9174920  )
       169           Si  tau( 169) = (  0.6674920  0.3336390  0.9994400  )
       170           Si  tau( 170) = (  0.7501090  0.4145060  0.0841696  )
       171           Si  tau( 171) = (  0.8337850  0.5004920  0.9993600  )
       172           Si  tau( 172) = (  0.9166350  0.5808680  0.0843347  )
       173           Si  tau( 173) = (  0.8342690  0.3338110  0.1660560  )
       174           Si  tau( 174) = (  0.9168130  0.4146610  0.2509540  )
       175           Si  tau( 175) = (  0.6678730  0.5007350  0.1661340  )
       176           Si  tau( 176) = (  0.7509820  0.5820990  0.2501240  )
       177           Si  tau( 177) = (  0.6674320  0.3340770  0.3327520  )
       178           Si  tau( 178) = (  0.7500200  0.4150720  0.4172560  )
       179           Si  tau( 179) = (  0.8340740  0.5007610  0.3324690  )
       180           Si  tau( 180) = (  0.9165770  0.5806270  0.4179500  )
       181           Si  tau( 181) = (  0.8337150  0.3344870  0.4995440  )
       182           Si  tau( 182) = (  0.9165560  0.4148210  0.5842020  )
       183           Si  tau( 183) = (  0.6673440  0.5007430  0.4993660  )
       184           Si  tau( 184) = (  0.7500040  0.5814940  0.5839910  )
       185           Si  tau( 185) = (  0.6669290  0.3340460  0.6661720  )
       186           Si  tau( 186) = (  0.7496970  0.4147460  0.7507100  )
       187           Si  tau( 187) = (  0.8337240  0.5004800  0.6659940  )
       188           Si  tau( 188) = (  0.9168740  0.5808800  0.7503020  )
       189           Si  tau( 189) = (  0.8339710  0.3343040  0.8326750  )
       190           Si  tau( 190) = (  0.9167010  0.4149220  0.9174610  )
       191           Si  tau( 191) = (  0.6666750  0.5002220  0.8326160  )
       192           Si  tau( 192) = (  0.7494920  0.5806980  0.9171290  )
       193           Si  tau( 193) = (  0.6666080  0.6664980  0.9987770  )
       194           Si  tau( 194) = (  0.7500060  0.7484820  0.0822116  )
       195           Si  tau( 195) = (  0.8334390  0.8341960  0.9960530  )
       196           Si  tau( 196) = (  0.9032710  0.8984930  0.0996736  )
       197           Si  tau( 197) = (  0.8349520  0.6687220  0.1653460  )
       198           Si  tau( 198) = (  0.9186260  0.7474750  0.2518300  )
       199           Si  tau( 199) = (  0.6688980  0.8352340  0.1653920  )
       200           Si  tau( 200) = (  0.7511250  0.9171340  0.2503060  )
       201           Si  tau( 201) = (  0.6679380  0.6675360  0.3323460  )
       202           Si  tau( 202) = (  0.7506830  0.7485980  0.4166480  )
       203           Si  tau( 203) = (  0.8351010  0.8349820  0.3319890  )
       204           Si  tau( 204) = (  0.9169370  0.9150320  0.4178740  )
       205           Si  tau( 205) = (  0.8338040  0.6671740  0.4988950  )
       206           Si  tau( 206) = (  0.9166270  0.7474370  0.5834750  )
       207           Si  tau( 207) = (  0.6672260  0.8336170  0.4989870  )
       208           Si  tau( 208) = (  0.7493260  0.9146110  0.5834790  )
       209           Si  tau( 209) = (  0.6670630  0.6670200  0.6659810  )
       210           Si  tau( 210) = (  0.7497410  0.7478390  0.7504880  )
       211           Si  tau( 211) = (  0.8330610  0.8331610  0.6646770  )
       212           Si  tau( 212) = (  0.9149500  0.9152720  0.7481990  )
       213           Si  tau( 213) = (  0.8334140  0.6662670  0.8321290  )
       214           Si  tau( 214) = (  0.9157460  0.7461420  0.9171910  )
       215           Si  tau( 215) = (  0.6663970  0.8333900  0.8322740  )
       216           H   tau( 216) = (  0.9657750  0.0322019  0.9594040  )
       217           H   tau( 217) = (  0.0276023  0.0301812  0.0498119  )
       218           H   tau( 218) = (  0.8457930  0.8430500  0.1519220  )
       219           H   tau( 219) = (  0.1555060  0.8393890  0.8486720  )

     number of k points=     8  Marzari-Vanderbilt smearing, width (Ry)=  0.0500
                       cart. coord. in units 2pi/alat
        k(    1) = (   0.0000000   0.0000000   0.0000000), wk =   0.2500000
        k(    2) = (   0.0000000   0.0000000  -0.4711288), wk =   0.2500000
        k(    3) = (   0.0000000  -0.4880085   0.0047265), wk =   0.2500000
        k(    4) = (   0.0000000  -0.4880085  -0.4664023), wk =   0.2500000
        k(    5) = (  -0.5000000  -0.0143805   0.0269409), wk =   0.2500000
        k(    6) = (  -0.5000000  -0.0143805  -0.4441879), wk =   0.2500000
        k(    7) = (  -0.5000000  -0.5023890   0.0316674), wk =   0.2500000
        k(    8) = (  -0.5000000  -0.5023890  -0.4394614), wk =   0.2500000

                       cryst. coord.
        k(    1) = (   0.0000000   0.0000000   0.0000000), wk =   0.2500000
        k(    2) = (   0.0000000   0.0000000  -0.5000000), wk =   0.2500000
        k(    3) = (   0.0000000  -0.5000000   0.0000000), wk =   0.2500000
        k(    4) = (   0.0000000  -0.5000000  -0.5000000), wk =   0.2500000
        k(    5) = (  -0.5000000  -0.0000000   0.0000000), wk =   0.2500000
        k(    6) = (  -0.5000000  -0.0000000  -0.5000000), wk =   0.2500000
        k(    7) = (  -0.5000000  -0.5000000   0.0000000), wk =   0.2500000
        k(    8) = (  -0.5000000  -0.5000000  -0.5000000), wk =   0.2500000

     Dense  grid:  1109889 G-vectors     FFT dimensions: ( 125, 135, 135)

     Dynamical RAM for                 wfc:     137.07 MB

     Dynamical RAM for     wfc (w. buffer):    1233.65 MB

     Dynamical RAM for           str. fact:       4.23 MB

     Dynamical RAM for           local pot:       0.00 MB

     Dynamical RAM for          nlocal pot:     284.46 MB

     Dynamical RAM for                qrad:       1.72 MB

     Dynamical RAM for          rho,v,vnew:      12.92 MB

     Dynamical RAM for               rhoin:       4.31 MB

     Dynamical RAM for            rho*nmix:      33.87 MB

     Dynamical RAM for           G-vectors:       9.00 MB

     Dynamical RAM for          h,s,v(r/c):     196.53 MB

     Dynamical RAM for          <psi|beta>:       8.50 MB

     Dynamical RAM for                 psi:     548.29 MB

     Dynamical RAM for                hpsi:     548.29 MB

     Dynamical RAM for      wfcinit/wfcrot:     474.35 MB

     Estimated static dynamical RAM per process >       1.56 GB

     Estimated max dynamical RAM per process >       2.84 GB

     Estimated total dynamical RAM >      22.68 GB

     Initial potential from superposition of free atoms

     starting charge  863.87972, renormalised to  864.00000
     Starting wfc are  864 randomized atomic wfcs

     total cpu time spent up to now is      277.1 secs

     Self-consistent Calculation

     iteration #  1     ecut=    42.00 Ry     beta= 0.30
     Davidson diagonalization with overlap
     ethr =  1.00E-02,  avg # of iterations =  3.0

     Threshold (ethr) on eigenvalues was too large:
     Diagonalizing with lowered threshold

     Davidson diagonalization with overlap
     ethr =  7.23E-04,  avg # of iterations =  1.0

     total cpu time spent up to now is     1310.7 secs

     total energy              =   -1697.74903398 Ry
     Harris-Foulkes estimate   =   -1698.65005071 Ry
     estimated scf accuracy    <       6.11351016 Ry

     iteration #  2     ecut=    42.00 Ry     beta= 0.30
     Davidson diagonalization with overlap
     ethr =  7.08E-04,  avg # of iterations =  1.0

     total cpu time spent up to now is     1683.4 secs

     total energy              =   -1697.24540363 Ry
     Harris-Foulkes estimate   =   -1697.82632702 Ry
     estimated scf accuracy    <       2.55989891 Ry

     iteration #  3     ecut=    42.00 Ry     beta= 0.30
     Davidson diagonalization with overlap
     ethr =  2.96E-04,  avg # of iterations = 11.6

     total cpu time spent up to now is     2329.5 secs

     total energy              =   -1697.34497461 Ry
     Harris-Foulkes estimate   =   -1697.42835098 Ry
     estimated scf accuracy    <       0.35452479 Ry

     iteration #  4     ecut=    42.00 Ry     beta= 0.30
     Davidson diagonalization with overlap
     ethr =  4.10E-05,  avg # of iterations =  9.8

     total cpu time spent up to now is     3071.4 secs

     total energy              =   -1697.39009187 Ry
     Harris-Foulkes estimate   =   -1697.41716313 Ry
     estimated scf accuracy    <       0.13516534 Ry

     iteration #  5     ecut=    42.00 Ry     beta= 0.30
     Davidson diagonalization with overlap
     ethr =  1.56E-05,  avg # of iterations =  5.4

     total cpu time spent up to now is     3612.2 secs

     total energy              =   -1697.40083282 Ry
     Harris-Foulkes estimate   =   -1697.40629968 Ry
     estimated scf accuracy    <       0.02873007 Ry

     iteration #  6     ecut=    42.00 Ry     beta= 0.30
     Davidson diagonalization with overlap
     ethr =  3.33E-06,  avg # of iterations =  8.6

     total cpu time spent up to now is     4249.3 secs

     total energy              =   -1697.40253938 Ry
     Harris-Foulkes estimate   =   -1697.40510349 Ry
     estimated scf accuracy    <       0.01331293 Ry

     iteration #  7     ecut=    42.00 Ry     beta= 0.30
     Davidson diagonalization with overlap
     ethr =  1.54E-06,  avg # of iterations =  6.4

     total cpu time spent up to now is     4820.8 secs

     total energy              =   -1697.40357311 Ry
     Harris-Foulkes estimate   =   -1697.40484974 Ry
     estimated scf accuracy    <       0.00709497 Ry

     iteration #  8     ecut=    42.00 Ry     beta= 0.30
     Davidson diagonalization with overlap
     ethr =  8.21E-07,  avg # of iterations =  3.0

     total cpu time spent up to now is     5253.4 secs

     total energy              =   -1697.40423081 Ry
     Harris-Foulkes estimate   =   -1697.40444181 Ry
     estimated scf accuracy    <       0.00114488 Ry

     iteration #  9     ecut=    42.00 Ry     beta= 0.30
     Davidson diagonalization with overlap
     ethr =  1.33E-07,  avg # of iterations =  3.2

     total cpu time spent up to now is     5710.4 secs

     total energy              =   -1697.40433870 Ry
     Harris-Foulkes estimate   =   -1697.40440006 Ry
     estimated scf accuracy    <       0.00029000 Ry

     iteration # 10     ecut=    42.00 Ry     beta= 0.30
     Davidson diagonalization with overlap
     ethr =  3.36E-08,  avg # of iterations =  3.2

     total cpu time spent up to now is     6180.6 secs

     total energy              =   -1697.40437029 Ry
     Harris-Foulkes estimate   =   -1697.40438936 Ry
     estimated scf accuracy    <       0.00009614 Ry

     iteration # 11     ecut=    42.00 Ry     beta= 0.30
     Davidson diagonalization with overlap
     ethr =  1.11E-08,  avg # of iterations =  3.0

     total cpu time spent up to now is     6634.1 secs

     total energy              =   -1697.40438319 Ry
     Harris-Foulkes estimate   =   -1697.40438591 Ry
     estimated scf accuracy    <       0.00002360 Ry

     iteration # 12     ecut=    42.00 Ry     beta= 0.30
     Davidson diagonalization with overlap
     ethr =  2.73E-09,  avg # of iterations =  3.1

     total cpu time spent up to now is     7098.5 secs

     total energy              =   -1697.40438649 Ry
     Harris-Foulkes estimate   =   -1697.40438682 Ry
     estimated scf accuracy    <       0.00000479 Ry

     iteration # 13     ecut=    42.00 Ry     beta= 0.30
     Davidson diagonalization with overlap
     ethr =  5.55E-10,  avg # of iterations =  3.2

     total cpu time spent up to now is     7601.3 secs

     total energy              =   -1697.40438749 Ry
     Harris-Foulkes estimate   =   -1697.40438760 Ry
     estimated scf accuracy    <       0.00000279 Ry

     iteration # 14     ecut=    42.00 Ry     beta= 0.30
     Davidson diagonalization with overlap
     ethr =  3.23E-10,  avg # of iterations =  2.9

     total cpu time spent up to now is     8040.4 secs

     total energy              =   -1697.40438806 Ry
     Harris-Foulkes estimate   =   -1697.40438788 Ry
     estimated scf accuracy    <       0.00000063 Ry

     iteration # 15     ecut=    42.00 Ry     beta= 0.30
     Davidson diagonalization with overlap
     ethr =  7.35E-11,  avg # of iterations =  2.9

     total cpu time spent up to now is     8480.2 secs

     total energy              =   -1697.40438830 Ry
     Harris-Foulkes estimate   =   -1697.40438814 Ry
     estimated scf accuracy    <       0.00000022 Ry

     iteration # 16     ecut=    42.00 Ry     beta= 0.30
     Davidson diagonalization with overlap
     ethr =  2.51E-11,  avg # of iterations =  3.0

     total cpu time spent up to now is     8920.7 secs

     total energy              =   -1697.40438840 Ry
     Harris-Foulkes estimate   =   -1697.40438832 Ry
     estimated scf accuracy    <       0.00000010 Ry

     iteration # 17     ecut=    42.00 Ry     beta= 0.30
     Davidson diagonalization with overlap
     ethr =  1.10E-11,  avg # of iterations =  2.9

     total cpu time spent up to now is     9384.6 secs

     total energy              =   -1697.40438844 Ry
     Harris-Foulkes estimate   =   -1697.40438841 Ry
     estimated scf accuracy    <       0.00000004 Ry

     iteration # 18     ecut=    42.00 Ry     beta= 0.30
     Davidson diagonalization with overlap
     ethr =  4.45E-12,  avg # of iterations =  3.2

     total cpu time spent up to now is     9856.2 secs

     total energy              =   -1697.40438845 Ry
     Harris-Foulkes estimate   =   -1697.40438844 Ry
     estimated scf accuracy    <       0.00000002 Ry

     iteration # 19     ecut=    42.00 Ry     beta= 0.30
     Davidson diagonalization with overlap
     ethr =  1.98E-12,  avg # of iterations =  3.5

     total cpu time spent up to now is    10321.6 secs

     End of self-consistent calculation

          k = 0.0000 0.0000 0.0000 (138633 PWs)   bands (ev):

    -5.8994  -5.4805  -5.4634  -5.4361  -5.4178  -5.4106  -5.3871  -5.0799
    -5.0626  -5.0314  -5.0093  -4.9963  -4.9925  -4.9751  -4.9635  -4.9315
    -4.9188  -4.9094  -4.8636  -4.6700  -4.6351  -4.6089  -4.5840  -4.5638
    -4.5220  -4.4575  -4.4282  -4.1729  -4.1202  -4.0715  -4.0212  -3.9915
    -3.9418  -3.8726  -3.8541  -3.8150  -3.7741  -3.7561  -3.7444  -3.7283
    -3.7212  -3.7126  -3.7069  -3.7035  -3.6909  -3.6750  -3.6735  -3.6682
    -3.6575  -3.6526  -3.6442  -3.6331  -3.6234  -3.6167  -3.6116  -3.6072
    -3.6040  -3.5954  -3.5946  -3.5889  -3.5572  -3.5420  -3.5332  -3.5271
    -3.5159  -3.5072  -3.5039  -3.4963  -3.4826  -3.4790  -3.4619  -3.4499
    -3.4172  -3.3994  -3.3578  -3.3373  -3.3115  -3.2890  -3.2605  -3.2432
    -3.0831  -2.9047  -2.8907  -2.8262  -2.8092  -2.7665  -2.7592  -2.7120
    -2.6825  -2.6377  -2.6063  -2.5394  -2.4972  -2.0813  -2.0255  -2.0122
    -1.9912  -1.9437  -1.9250  -1.9198  -1.9158  -1.8958  -1.8499  -1.8447
    -1.8032  -1.7890  -1.7695  -1.7670  -1.7451  -1.7395  -1.7319  -1.7266
    -1.7138  -1.6881  -1.6490  -1.6220  -1.6149  -1.6050  -1.6008  -1.5920
    -1.5321  -1.5186  -1.3945  -1.0321  -0.9955  -0.9796  -0.9614  -0.9408
    -0.8748  -0.8127  -0.7911  -0.7865  -0.7634  -0.7267  -0.7132  -0.7091
    -0.7053  -0.7012  -0.6959  -0.6914  -0.6822  -0.6763  -0.6749  -0.6664
    -0.6608  -0.6599  -0.6447  -0.6231  -0.6063  -0.6009  -0.5935  -0.5832
    -0.5790  -0.5711  -0.5581  -0.5431  -0.5378  -0.4261  -0.2059   0.1065
     0.1233   0.1417   0.1452   0.1785   0.1830   0.1913   0.2040   0.2124
     0.2186   0.2233   0.2269   0.2347   0.2440   0.2469   0.2736   0.2889
     0.2996   0.3025   0.3174   0.3207   0.3311   0.3377   0.3987   0.4196
     0.5138   0.5218   0.5931   0.6171   0.6346   0.6651   0.7630   0.8325
     0.8458   0.8744   1.0237   1.0269   1.2900   1.4637   1.4875   1.5110
     1.5186   1.5332   1.5774   1.6049   1.6332   1.6591   1.6759   1.6998
     1.7036   1.8550   1.8934   2.0059   2.0244   2.0522   2.0845   2.1122
     2.1232   2.1334   2.1360   2.1568   2.1690   2.1850   2.1968   2.2055
     2.2093   2.2114   2.2146   2.2189   2.2309   2.2333   2.2400   2.2533
     2.2610   2.2656   2.2686   2.2819   2.2930   2.2982   2.3042   2.3096
     2.3170   2.3316   2.3349   2.3420   2.3442   2.3686   2.3844   2.3967
     2.4153   2.4571   2.4598   2.4656   2.4798   2.4933   2.4963   2.5084
     2.5149   2.5173   2.5272   2.5396   2.5438   2.5510   2.5691   2.5787
     2.5800   2.6044   2.6082   2.6820   2.7153   2.7437   2.7703   2.8086
     2.8358   2.8460   2.8799   2.9432   2.9569   2.9994   3.0292   3.0448
     3.0540   3.0793   3.0811   3.1161   3.1210   3.1390   3.1456   3.1539
     3.1606   3.1726   3.1947   3.2089   3.2381   3.2507   3.2534   3.2682
     3.3004   3.3223   3.3454   3.3684   3.3789   3.3870   3.4016   3.4169
     3.4282   3.4334   3.4413   3.4597   3.4640   3.4794   3.4826   3.4966
     3.5059   3.5172   3.5216   3.5291   3.5306   3.5427   3.5450   3.5482
     3.5534   3.5574   3.5608   3.5643   3.5679   3.5709   3.5750   3.5772
     3.5932   3.5997   3.6128   3.6222   3.6303   3.6377   3.6502   3.6577
     3.6686   3.6762   3.6830   3.7104   3.7177   3.7274   3.7416   3.7476
     3.7604   3.7686   3.7776   3.7840   3.7887   3.7976   3.8060   3.8154
     3.8237   3.8287   3.8392   3.8472   3.8561   3.8598   3.8864   3.8935
     3.9019   3.9083   3.9123   3.9211   3.9308   3.9493   3.9644   3.9787
     3.9941   4.0067   4.0154   4.0459   4.0673   4.1133   4.1381   4.1463
     4.1898   4.2201   4.2511   4.2755   4.3048   4.3635   4.3802   4.3880
     4.3988   4.4110   4.4384   4.4454   4.4610   4.4855   4.4890   4.5133
     4.5180   4.5231   4.5390   4.5673   4.5861   4.6419   4.6742   4.7003
     4.7122   4.7671   4.7759   4.7892   4.8121   4.8395   4.8516   4.9831
     5.0184   5.0339   5.0507   5.0608   5.0724   5.0765   5.0895   5.1052
     5.1236   5.1303   5.1519   5.1532   5.1648   5.3255   5.3362   5.3490
     5.3812   5.4527   5.4738   5.5047   5.5868   5.6233   5.7822   6.1754
     6.2438   6.3493   6.3938   6.4384   6.5014   6.5421   6.5774   6.6881
     6.8802   6.9150   6.9858   7.0130   7.0224   7.0823   7.1078   7.1287
     7.1410   7.1850   7.2454   7.2618   7.2788   7.3191   7.3715   7.4055
     7.4340   7.4412   7.4643   7.4904   7.4952   7.5361   7.5467   7.5659
     7.5741   7.5804   7.6002   7.6237   7.6624   7.6716   7.6796   7.7070
     7.7314   7.7465   7.7495   7.7705   7.7782   7.7914   7.7943   7.8110
     7.8169   7.8478   7.8661   7.8869   7.9032   7.9100   7.9176   7.9324
     7.9405   7.9663   7.9859   8.0038   8.0361   8.0463   8.0613   8.0944
     8.1002   8.1077   8.1255   8.1337   8.1597   8.1693   8.2017   8.2062
     8.2119   8.2218   8.2350   8.2433   8.2617   8.2838   8.2955   8.2989
     8.3056   8.3187   8.3282   8.3406   8.3512   8.3519

     occupation numbers 
     1.0000   1.0000   1.0000   1.0000   1.0000   1.0000   1.0000   1.0000
     1.0000   1.0000   1.0000   1.0000   1.0000   1.0000   1.0000   1.0000
     1.0000   1.0000   1.0000   1.0000   1.0000   1.0000   1.0000   1.0000
     1.0000   1.0000   1.0000   1.0000   1.0000   1.0000   1.0000   1.0000
     1.0000   1.0000   1.0000   1.0000   1.0000   1.0000   1.0000   1.0000
     1.0000   1.0000   1.0000   1.0000   1.0000   1.0000   1.0000   1.0000
     1.0000   1.0000   1.0000   1.0000   1.0000   1.0000   1.0000   1.0000
     1.0000   1.0000   1.0000   1.0000   1.0000   1.0000   1.0000   1.0000
     1.0000   1.0000   1.0000   1.0000   1.0000   1.0000   1.0000   1.0000
     1.0000   1.0000   1.0000   1.0000   1.0000   1.0000   1.0000   1.0000
     1.0000   1.0000   1.0000   1.0000   1.0000   1.0000   1.0000   1.0000
     1.0000   1.0000   1.0000   1.0000   1.0000   1.0000   1.0000   1.0000
     1.0000   1.0000   1.0000   1.0000   1.0000   1.0000   1.0000   1.0000
     1.0000   1.0000   1.0000   1.0000   1.0000   1.0000   1.0000   1.0000
     1.0000   1.0000   1.0000   1.0000   1.0000   1.0000   1.0000   1.0000
     1.0000   1.0000   1.0000   1.0000   1.0000   1.0000   1.0000   1.0000
     1.0000   1.0000   1.0000   1.0000   1.0000   1.0000   1.0000   1.0000
     1.0000   1.0000   1.0000   1.0000   1.0000   1.0000   1.0000   1.0000
     1.0000   1.0000   1.0000   1.0000   1.0000   1.0000   1.0000   1.0000
     1.0000   1.0000   1.0000   1.0000   1.0000   1.0000   1.0000   1.0000
     1.0000   1.0000   1.0000   1.0000   1.0000   1.0000   1.0000   1.0000
     1.0000   1.0000   1.0000   1.0000   1.0000   1.0000   1.0000   1.0000
     1.0000   1.0000   1.0000   1.0000   1.0000   1.0000   1.0000   1.0000
     1.0000   1.0000   1.0000   1.0000   1.0000   1.0000   1.0000   1.0000
     1.0000   1.0000   1.0000   1.0000   1.0000   1.0000   1.0000   1.0000
     1.0000   1.0000   1.0000   1.0000   1.0000   1.0000   1.0000   1.0000
     1.0000   1.0000   1.0000   1.0000   1.0000   1.0000   1.0000   1.0000
     1.0000   1.0000   1.0000   1.0000   1.0000   1.0000   1.0000   1.0000
     1.0000   1.0000   1.0000   1.0000   1.0000   1.0000   1.0000   1.0000
     1.0000   1.0000   1.0000   1.0000   1.0000   1.0000   1.0000   1.0000
     1.0000   1.0000   1.0000   1.0000   1.0000   1.0000   1.0000   1.0000
     1.0000   1.0000   1.0000   1.0000   1.0000   1.0000   1.0000   1.0000
     1.0000   1.0000   1.0000   1.0000   1.0000   1.0000   1.0000   1.0000
     1.0000   1.0000   1.0000   1.0000   1.0000   1.0000   1.0000   1.0000
     1.0000   1.0000   1.0000   1.0000   1.0000   1.0000   1.0000   1.0000
     1.0000   1.0000   1.0000   1.0000   1.0000   1.0000   1.0000   1.0000
     1.0000   1.0000   1.0000   1.0000   1.0000   1.0000   1.0000   1.0001
     1.0001   1.0001   1.0001   1.0001   1.0001   1.0001   1.0002   1.0002
     1.0002   1.0002   1.0002   1.0002   1.0003   1.0003   1.0003   1.0003
     1.0003   1.0004   1.0004   1.0004   1.0004   1.0005   1.0005   1.0005
     1.0005   1.0005   1.0005   1.0005   1.0005   1.0006   1.0006   1.0006
     1.0007   1.0007   1.0008   1.0008   1.0008   1.0009   1.0010   1.0010
     1.0011   1.0012   1.0012   1.0015   1.0015   1.0016   1.0018   1.0018
     1.0020   1.0021   1.0022   1.0023   1.0024   1.0025   1.0027   1.0028
     1.0030   1.0031   1.0032   1.0034   1.0036   1.0037   1.0043   1.0045
     1.0047   1.0048   1.0050   1.0052   1.0055   1.0061   1.0066   1.0071
     1.0077   1.0082   1.0086   1.0100   1.0111   1.0138   1.0155   1.0161
     1.0194   1.0220   1.0249   1.0274   1.0305   1.0374   1.0395   1.0405
     1.0419   1.0435   1.0471   1.0481   1.0502   1.0536   1.0541   1.0574
     1.0581   1.0588   1.0610   1.0648   1.0672   1.0739   1.0772   1.0794
     1.0803   1.0830   1.0832   1.0833   1.0831   1.0821   1.0813   1.0595
     1.0486   1.0432   1.0367   1.0326   1.0276   1.0257   1.0198   1.0120
     1.0024   0.9986   0.9862   0.9854   0.9782   0.8536   0.8436   0.8317
     0.8005   0.7269   0.7043   0.6707   0.5801   0.5398   0.3732   0.0992
     0.0740   0.0454   0.0364   0.0290   0.0207   0.0165   0.0135   0.0069
     0.0019   0.0015   0.0009   0.0007   0.0007   0.0004   0.0003   0.0003
     0.0003   0.0002   0.0001   0.0001   0.0001   0.0001   0.0000   0.0000
     0.0000   0.0000   0.0000   0.0000   0.0000   0.0000   0.0000   0.0000
     0.0000   0.0000   0.0000   0.0000   0.0000   0.0000   0.0000   0.0000
     0.0000   0.0000   0.0000   0.0000   0.0000   0.0000   0.0000   0.0000
     0.0000   0.0000   0.0000   0.0000   0.0000   0.0000   0.0000   0.0000
     0.0000   0.0000   0.0000   0.0000   0.0000   0.0000   0.0000   0.0000
     0.0000   0.0000   0.0000   0.0000   0.0000   0.0000   0.0000   0.0000
     0.0000   0.0000   0.0000   0.0000   0.0000   0.0000   0.0000   0.0000
     0.0000   0.0000   0.0000   0.0000   0.0000   0.0000

          k = 0.0000 0.0000-0.4711 (138694 PWs)   bands (ev):

    -5.7902  -5.7874  -5.3744  -5.3513  -5.3240  -5.3209  -5.3116  -5.2900
    -5.2862  -5.2389  -4.9701  -4.9311  -4.9058  -4.8862  -4.8739  -4.8672
    -4.8500  -4.8251  -4.7829  -4.7566  -4.5522  -4.5440  -4.5137  -4.4757
    -4.4515  -4.4385  -4.3661  -4.3454  -4.2300  -4.2090  -4.1763  -4.1528
    -4.0710  -4.0526  -3.9888  -3.9818  -3.9445  -3.9411  -3.9378  -3.9311
    -3.9266  -3.8762  -3.8178  -3.7907  -3.7134  -3.6930  -3.6827  -3.6567
    -3.6382  -3.6255  -3.6072  -3.5852  -3.5743  -3.5684  -3.5604  -3.5559
    -3.5519  -3.5178  -3.4870  -3.4832  -3.4725  -3.4454  -3.4161  -3.4006
    -3.3659  -3.3582  -3.3524  -3.3269  -3.2853  -3.2777  -3.2350  -3.2284
    -3.1876  -3.1793  -3.1771  -3.1469  -3.1368  -3.0939  -3.0501  -3.0466
    -3.0269  -3.0008  -2.9922  -2.9746  -2.9668  -2.9247  -2.8848  -2.8687
    -2.8474  -2.7939  -2.7857  -2.7589  -2.7262  -2.5847  -2.4012  -2.3688
    -2.2101  -2.2092  -2.1661  -2.1424  -2.0606  -2.0455  -1.9154  -1.8874
    -1.7907  -1.7852  -1.7528  -1.7364  -1.7075  -1.6636  -1.6046  -1.5740
    -1.5174  -1.4962  -1.3961  -1.3879  -1.2424  -1.2289  -1.2061  -1.1900
    -1.1767  -1.1479  -1.0357  -1.0143  -0.9538  -0.9419  -0.9345  -0.9264
    -0.9154  -0.9045  -0.9008  -0.8935  -0.8822  -0.8737  -0.8683  -0.8547
    -0.8430  -0.8227  -0.8120  -0.8061  -0.7981  -0.7871  -0.7666  -0.7586
    -0.7340  -0.7326  -0.7208  -0.5383  -0.4101  -0.3329  -0.2817  -0.2746
    -0.2576  -0.2534  -0.2441  -0.2392  -0.2304  -0.2220  -0.2115  -0.1954
    -0.1811  -0.1754  -0.1686  -0.1516  -0.1467  -0.1355  -0.1299  -0.1257
    -0.1223  -0.1167  -0.0851  -0.0791  -0.0609  -0.0521  -0.0397  -0.0228
     0.0111   0.0357   0.0928   0.4536   0.6875   0.7128   0.7268   0.7761
     0.7784   0.8352   0.8440   0.9657   1.0638   1.0684   1.1313   1.1749
     1.1899   1.2027   1.2093   1.2374   1.2536   1.3148   1.3439   1.4500
     1.5184   1.5464   1.6450   1.6628   1.7108   1.7299   1.7415   1.7673
     1.7718   1.7890   1.8091   1.8162   1.8370   1.8409   1.8485   1.8519
     1.8607   1.8706   1.8871   1.8952   1.9412   1.9725   1.9765   1.9815
     1.9868   2.0073   2.0150   2.0475   2.0792   2.1013   2.1049   2.1287
     2.2176   2.2300   2.2395   2.2802   2.3070   2.3269   2.3317   2.3712
     2.3955   2.4117   2.4266   2.4967   2.5082   2.5134   2.5291   2.5420
     2.5431   2.5607   2.5779   2.5972   2.6044   2.6243   2.6702   2.6801
     2.6877   2.6975   2.7054   2.7119   2.7266   2.7361   2.7488   2.7597
     2.7809   2.7883   2.8368   2.8435   2.8514   2.8565   2.8650   2.8661
     2.8767   2.8884   2.8924   2.9210   2.9252   2.9348   2.9416   2.9563
     2.9664   2.9781   2.9893   2.9965   3.0038   3.0127   3.0157   3.0223
     3.0248   3.0285   3.0436   3.0578   3.0589   3.0674   3.0788   3.0925
     3.0956   3.1101   3.1244   3.1320   3.1599   3.1803   3.2375   3.2536
     3.2587   3.2634   3.3045   3.3295   3.3551   3.3778   3.3932   3.4054
     3.4333   3.4465   3.4530   3.4774   3.4868   3.5220   3.5639   3.5727
     3.5925   3.5969   3.6125   3.6189   3.6363   3.6464   3.6559   3.6642
     3.6711   3.6859   3.6959   3.6978   3.7148   3.7350   3.7421   3.7465
     3.7604   3.7821   3.7929   3.8167   3.8190   3.8333   3.8389   3.8600
     3.8654   3.8661   3.8874   3.9068   3.9101   3.9131   3.9243   3.9316
     3.9408   3.9557   3.9667   3.9910   4.0077   4.0101   4.0112   4.0225
     4.0284   4.0308   4.0360   4.0522   4.0561   4.1015   4.1281   4.1368
     4.1471   4.1598   4.1698   4.1791   4.1974   4.2048   4.2167   4.2708
     4.2752   4.2812   4.2959   4.3121   4.3152   4.3204   4.3209   4.3301
     4.3359   4.3444   4.3476   4.3607   4.3643   4.3817   4.4005   4.4060
     4.4166   4.4195   4.4352   4.4495   4.4631   4.4688   4.4727   4.4889
     4.5447   4.5908   4.6775   4.6852   4.6917   4.7382   4.7820   4.8017
     4.8242   4.8643   4.9142   4.9303   4.9332   4.9537   5.0084   5.0349
     5.0443   5.0844   5.1711   5.1907   5.2990   5.3097   5.3252   5.3333
     5.3740   5.4120   5.4340   5.4654   5.5355   5.5563   5.7418   5.7797
     6.6908   6.7148   6.7249   6.7394   6.8402   6.8518   6.9124   6.9333
     7.0184   7.0303   7.0531   7.0792   7.0814   7.0892   7.1031   7.1300
     7.2519   7.2904   7.2952   7.3360   7.3440   7.3529   7.3913   7.3958
     7.4456   7.4847   7.4975   7.5285   7.5408   7.5530   7.5833   7.5980
     7.6200   7.6233   7.6717   7.6847   7.7045   7.7221   7.7349   7.7412
     7.7501   7.7537   7.7619   7.7786   7.7851   7.7967   7.8090   7.8246
     7.8308   7.8507   7.8667   7.8835   7.8979   7.9014   7.9133   7.9201
     7.9441   7.9638   7.9852   7.9904   8.0085   8.0211   8.0324   8.0365
     8.0418   8.0578   8.0602   8.0657   8.0731   8.0792   8.0811   8.0861
     8.1025   8.1107   8.1192   8.1298   8.1420   8.1458   8.1603   8.1673
     8.1929   8.2010   8.2130   8.2215   8.2377   8.2552

     occupation numbers 
     1.0000   1.0000   1.0000   1.0000   1.0000   1.0000   1.0000   1.0000
     1.0000   1.0000   1.0000   1.0000   1.0000   1.0000   1.0000   1.0000
     1.0000   1.0000   1.0000   1.0000   1.0000   1.0000   1.0000   1.0000
     1.0000   1.0000   1.0000   1.0000   1.0000   1.0000   1.0000   1.0000
     1.0000   1.0000   1.0000   1.0000   1.0000   1.0000   1.0000   1.0000
     1.0000   1.0000   1.0000   1.0000   1.0000   1.0000   1.0000   1.0000
     1.0000   1.0000   1.0000   1.0000   1.0000   1.0000   1.0000   1.0000
     1.0000   1.0000   1.0000   1.0000   1.0000   1.0000   1.0000   1.0000
     1.0000   1.0000   1.0000   1.0000   1.0000   1.0000   1.0000   1.0000
     1.0000   1.0000   1.0000   1.0000   1.0000   1.0000   1.0000   1.0000
     1.0000   1.0000   1.0000   1.0000   1.0000   1.0000   1.0000   1.0000
     1.0000   1.0000   1.0000   1.0000   1.0000   1.0000   1.0000   1.0000
     1.0000   1.0000   1.0000   1.0000   1.0000   1.0000   1.0000   1.0000
     1.0000   1.0000   1.0000   1.0000   1.0000   1.0000   1.0000   1.0000
     1.0000   1.0000   1.0000   1.0000   1.0000   1.0000   1.0000   1.0000
     1.0000   1.0000   1.0000   1.0000   1.0000   1.0000   1.0000   1.0000
     1.0000   1.0000   1.0000   1.0000   1.0000   1.0000   1.0000   1.0000
     1.0000   1.0000   1.0000   1.0000   1.0000   1.0000   1.0000   1.0000
     1.0000   1.0000   1.0000   1.0000   1.0000   1.0000   1.0000   1.0000
     1.0000   1.0000   1.0000   1.0000   1.0000   1.0000   1.0000   1.0000
     1.0000   1.0000   1.0000   1.0000   1.0000   1.0000   1.0000   1.0000
     1.0000   1.0000   1.0000   1.0000   1.0000   1.0000   1.0000   1.0000
     1.0000   1.0000   1.0000   1.0000   1.0000   1.0000   1.0000   1.0000
     1.0000   1.0000   1.0000   1.0000   1.0000   1.0000   1.0000   1.0000
     1.0000   1.0000   1.0000   1.0000   1.0000   1.0000   1.0000   1.0000
     1.0000   1.0000   1.0000   1.0000   1.0000   1.0000   1.0000   1.0000
     1.0000   1.0000   1.0000   1.0000   1.0000   1.0000   1.0000   1.0000
     1.0000   1.0000   1.0000   1.0000   1.0000   1.0000   1.0000   1.0000
     1.0000   1.0000   1.0000   1.0000   1.0000   1.0000   1.0000   1.0000
     1.0000   1.0000   1.0000   1.0000   1.0000   1.0000   1.0000   1.0000
     1.0000   1.0000   1.0000   1.0000   1.0000   1.0000   1.0000   1.0000
     1.0000   1.0000   1.0000   1.0000   1.0000   1.0000   1.0000   1.0000
     1.0000   1.0000   1.0000   1.0000   1.0000   1.0000   1.0000   1.0000
     1.0000   1.0000   1.0000   1.0000   1.0000   1.0000   1.0000   1.0000
     1.0000   1.0000   1.0000   1.0000   1.0000   1.0000   1.0000   1.0000
     1.0000   1.0000   1.0000   1.0000   1.0000   1.0000   1.0000   1.0000
     1.0000   1.0000   1.0000   1.0000   1.0000   1.0000   1.0000   1.0000
     1.0000   1.0000   1.0000   1.0000   1.0000   1.0000   1.0000   1.0000
     1.0000   1.0000   1.0001   1.0001   1.0001   1.0001   1.0001   1.0002
     1.0002   1.0002   1.0002   1.0003   1.0003   1.0004   1.0005   1.0006
     1.0007   1.0007   1.0008   1.0008   1.0009   1.0009   1.0010   1.0011
     1.0011   1.0012   1.0013   1.0013   1.0015   1.0017   1.0018   1.0018
     1.0020   1.0023   1.0025   1.0028   1.0029   1.0031   1.0032   1.0037
     1.0038   1.0038   1.0043   1.0048   1.0049   1.0050   1.0053   1.0055
     1.0058   1.0063   1.0067   1.0076   1.0083   1.0084   1.0084   1.0089
     1.0092   1.0093   1.0095   1.0103   1.0105   1.0131   1.0148   1.0154
     1.0161   1.0171   1.0178   1.0185   1.0200   1.0207   1.0217   1.0269
     1.0273   1.0280   1.0295   1.0313   1.0317   1.0323   1.0323   1.0334
     1.0341   1.0351   1.0355   1.0370   1.0375   1.0397   1.0421   1.0428
     1.0442   1.0446   1.0467   1.0486   1.0505   1.0513   1.0518   1.0541
     1.0617   1.0678   1.0775   1.0782   1.0787   1.0819   1.0833   1.0833
     1.0828   1.0803   1.0743   1.0715   1.0710   1.0668   1.0520   1.0428
     1.0393   1.0221   0.9743   0.9614   0.8772   0.8678   0.8538   0.8464
     0.8075   0.7694   0.7466   0.7133   0.6369   0.6139   0.4135   0.3756
     0.0068   0.0058   0.0055   0.0050   0.0025   0.0024   0.0015   0.0013
     0.0007   0.0006   0.0005   0.0004   0.0004   0.0004   0.0004   0.0003
     0.0001   0.0001   0.0001   0.0000   0.0000   0.0000   0.0000   0.0000
     0.0000   0.0000   0.0000   0.0000   0.0000   0.0000   0.0000   0.0000
     0.0000   0.0000   0.0000   0.0000   0.0000   0.0000   0.0000   0.0000
     0.0000   0.0000   0.0000   0.0000   0.0000   0.0000   0.0000   0.0000
     0.0000   0.0000   0.0000   0.0000   0.0000   0.0000   0.0000   0.0000
     0.0000   0.0000   0.0000   0.0000   0.0000   0.0000   0.0000   0.0000
     0.0000   0.0000   0.0000   0.0000   0.0000   0.0000   0.0000   0.0000
     0.0000   0.0000   0.0000   0.0000   0.0000   0.0000   0.0000   0.0000
     0.0000   0.0000   0.0000   0.0000   0.0000   0.0000

          k = 0.0000-0.4880 0.0047 (138754 PWs)   bands (ev):

    -5.7905  -5.7728  -5.4007  -5.3434  -5.3362  -5.3262  -5.3161  -5.2935
    -5.2759  -5.2618  -4.9848  -4.9372  -4.9246  -4.9091  -4.8751  -4.8545
    -4.8337  -4.8087  -4.7950  -4.7479  -4.4944  -4.4722  -4.4508  -4.4467
    -4.4178  -4.3979  -4.3512  -4.3397  -4.1987  -4.1720  -4.1281  -4.1188
    -4.0949  -4.0625  -4.0527  -4.0385  -4.0292  -3.9971  -3.9450  -3.9203
    -3.9005  -3.8746  -3.8420  -3.8295  -3.8015  -3.7814  -3.7690  -3.7483
    -3.6997  -3.6916  -3.6470  -3.6429  -3.5967  -3.5872  -3.5674  -3.5593
    -3.5268  -3.5144  -3.4913  -3.4826  -3.4678  -3.4352  -3.4026  -3.3893
    -3.3817  -3.3564  -3.3253  -3.3165  -3.2897  -3.2732  -3.2678  -3.2267
    -3.1966  -3.1808  -3.1371  -3.1201  -3.1118  -3.0918  -3.0677  -3.0484
    -3.0343  -2.9416  -2.8790  -2.8563  -2.8332  -2.8105  -2.7806  -2.7716
    -2.7462  -2.7273  -2.7240  -2.7076  -2.6909  -2.5509  -2.3751  -2.3510
    -2.2189  -2.2112  -2.1898  -2.1833  -2.1483  -2.1209  -2.0398  -2.0059
    -1.9420  -1.8941  -1.8051  -1.7781  -1.7278  -1.7000  -1.6620  -1.6425
    -1.6384  -1.5884  -1.4753  -1.4680  -1.4203  -1.3677  -1.1859  -1.1729
    -1.1571  -1.1287  -1.0407  -0.9763  -0.9075  -0.8924  -0.8861  -0.8716
    -0.8617  -0.8501  -0.8470  -0.8334  -0.8327  -0.8282  -0.8237  -0.8179
    -0.8099  -0.7973  -0.7520  -0.7448  -0.7195  -0.6912  -0.6821  -0.6656
    -0.6530  -0.5720  -0.5358  -0.4809  -0.4498  -0.4117  -0.4002  -0.3682
    -0.3349  -0.2770  -0.2621  -0.2396  -0.2257  -0.2165  -0.2086  -0.2038
    -0.1998  -0.1830  -0.1662  -0.1430  -0.1353  -0.1188  -0.0935  -0.0887
    -0.0832  -0.0751  -0.0719  -0.0670  -0.0533  -0.0498  -0.0416  -0.0276
    -0.0016   0.0387   0.1010   0.4161   0.5069   0.5344   0.5438   0.6640
     0.7378   0.8051   0.8190   0.9035   1.0194   1.0366   1.1083   1.1698
     1.1920   1.1970   1.2499   1.2834   1.3123   1.3966   1.4264   1.4398
     1.4792   1.5545   1.6466   1.6779   1.6842   1.7013   1.7072   1.7101
     1.7222   1.7608   1.7641   1.7685   1.7870   1.8052   1.8191   1.8595
     1.9100   1.9752   2.0025   2.0101   2.0150   2.0333   2.0449   2.0682
     2.0744   2.0801   2.0884   2.1038   2.1130   2.1178   2.1244   2.1471
     2.1493   2.1675   2.1864   2.2083   2.2299   2.2481   2.2649   2.2779
     2.3309   2.3924   2.4726   2.5379   2.5752   2.5781   2.5983   2.6132
     2.6362   2.6509   2.6540   2.6702   2.6867   2.6950   2.7090   2.7197
     2.7329   2.7383   2.7495   2.7678   2.7716   2.7899   2.7998   2.8070
     2.8118   2.8186   2.8285   2.8325   2.8359   2.8427   2.8480   2.8541
     2.8580   2.8621   2.8693   2.8751   2.8809   2.8917   2.8973   2.9130
     2.9381   2.9412   2.9499   2.9797   2.9931   2.9939   3.0026   3.0216
     3.0263   3.0354   3.0393   3.0468   3.0570   3.0671   3.0833   3.0881
     3.1056   3.1315   3.1394   3.1464   3.1652   3.1842   3.1989   3.2077
     3.2165   3.2388   3.2520   3.2753   3.3064   3.3310   3.3547   3.3641
     3.3823   3.4277   3.4617   3.4712   3.4877   3.4950   3.4994   3.5185
     3.5260   3.5499   3.5523   3.5555   3.5675   3.5891   3.5961   3.5996
     3.6117   3.6251   3.6421   3.6453   3.6529   3.6651   3.6810   3.6923
     3.7056   3.7151   3.7232   3.7366   3.7423   3.7687   3.8124   3.8191
     3.8222   3.8427   3.8465   3.8910   3.9410   3.9485   3.9666   3.9782
     3.9867   4.0039   4.0211   4.0304   4.0428   4.0512   4.0593   4.0679
     4.0810   4.0959   4.1080   4.1225   4.1344   4.1475   4.1486   4.1532
     4.1666   4.1913   4.1953   4.2117   4.2266   4.2358   4.2373   4.2586
     4.2943   4.3040   4.3203   4.3247   4.3267   4.3342   4.3394   4.3510
     4.3623   4.3674   4.3747   4.3795   4.3926   4.4056   4.4225   4.4400
     4.4673   4.4812   4.4957   4.4970   4.5086   4.5210   4.5375   4.5680
     4.5947   4.6197   4.6782   4.7141   4.7552   4.7811   4.8340   4.8774
     4.8910   4.9156   4.9328   4.9401   5.0016   5.0330   5.0537   5.0650
     5.0786   5.0852   5.0945   5.1089   5.1451   5.1536   5.1648   5.1784
     5.3485   5.3652   5.3714   5.3876   5.4019   5.4108   5.7304   5.7708
     6.2931   6.3321   6.9021   6.9094   6.9632   6.9827   6.9866   7.0103
     7.0336   7.0479   7.0789   7.1068   7.1532   7.1738   7.2040   7.2312
     7.2403   7.2409   7.2560   7.2643   7.2968   7.3123   7.3189   7.3768
     7.3919   7.4058   7.4664   7.4924   7.5230   7.5527   7.5659   7.5724
     7.6092   7.6136   7.6362   7.6638   7.6881   7.7202   7.7339   7.7483
     7.7548   7.7621   7.7997   7.8205   7.8353   7.8461   7.8597   7.8703
     7.8786   7.8832   7.9015   7.9192   7.9279   7.9347   7.9475   7.9678
     7.9770   7.9806   8.0002   8.0112   8.0162   8.0215   8.0290   8.0448
     8.0545   8.0636   8.0803   8.0870   8.1004   8.1067   8.1350   8.1617
     8.1732   8.1844   8.1961   8.2256   8.2434   8.2472   8.2518   8.2584
     8.2654   8.2749   8.2852   8.2961   8.3017   8.3065

     occupation numbers 
     1.0000   1.0000   1.0000   1.0000   1.0000   1.0000   1.0000   1.0000
     1.0000   1.0000   1.0000   1.0000   1.0000   1.0000   1.0000   1.0000
     1.0000   1.0000   1.0000   1.0000   1.0000   1.0000   1.0000   1.0000
     1.0000   1.0000   1.0000   1.0000   1.0000   1.0000   1.0000   1.0000
     1.0000   1.0000   1.0000   1.0000   1.0000   1.0000   1.0000   1.0000
     1.0000   1.0000   1.0000   1.0000   1.0000   1.0000   1.0000   1.0000
     1.0000   1.0000   1.0000   1.0000   1.0000   1.0000   1.0000   1.0000
     1.0000   1.0000   1.0000   1.0000   1.0000   1.0000   1.0000   1.0000
     1.0000   1.0000   1.0000   1.0000   1.0000   1.0000   1.0000   1.0000
     1.0000   1.0000   1.0000   1.0000   1.0000   1.0000   1.0000   1.0000
     1.0000   1.0000   1.0000   1.0000   1.0000   1.0000   1.0000   1.0000
     1.0000   1.0000   1.0000   1.0000   1.0000   1.0000   1.0000   1.0000
     1.0000   1.0000   1.0000   1.0000   1.0000   1.0000   1.0000   1.0000
     1.0000   1.0000   1.0000   1.0000   1.0000   1.0000   1.0000   1.0000
     1.0000   1.0000   1.0000   1.0000   1.0000   1.0000   1.0000   1.0000
     1.0000   1.0000   1.0000   1.0000   1.0000   1.0000   1.0000   1.0000
     1.0000   1.0000   1.0000   1.0000   1.0000   1.0000   1.0000   1.0000
     1.0000   1.0000   1.0000   1.0000   1.0000   1.0000   1.0000   1.0000
     1.0000   1.0000   1.0000   1.0000   1.0000   1.0000   1.0000   1.0000
     1.0000   1.0000   1.0000   1.0000   1.0000   1.0000   1.0000   1.0000
     1.0000   1.0000   1.0000   1.0000   1.0000   1.0000   1.0000   1.0000
     1.0000   1.0000   1.0000   1.0000   1.0000   1.0000   1.0000   1.0000
     1.0000   1.0000   1.0000   1.0000   1.0000   1.0000   1.0000   1.0000
     1.0000   1.0000   1.0000   1.0000   1.0000   1.0000   1.0000   1.0000
     1.0000   1.0000   1.0000   1.0000   1.0000   1.0000   1.0000   1.0000
     1.0000   1.0000   1.0000   1.0000   1.0000   1.0000   1.0000   1.0000
     1.0000   1.0000   1.0000   1.0000   1.0000   1.0000   1.0000   1.0000
     1.0000   1.0000   1.0000   1.0000   1.0000   1.0000   1.0000   1.0000
     1.0000   1.0000   1.0000   1.0000   1.0000   1.0000   1.0000   1.0000
     1.0000   1.0000   1.0000   1.0000   1.0000   1.0000   1.0000   1.0000
     1.0000   1.0000   1.0000   1.0000   1.0000   1.0000   1.0000   1.0000
     1.0000   1.0000   1.0000   1.0000   1.0000   1.0000   1.0000   1.0000
     1.0000   1.0000   1.0000   1.0000   1.0000   1.0000   1.0000   1.0000
     1.0000   1.0000   1.0000   1.0000   1.0000   1.0000   1.0000   1.0000
     1.0000   1.0000   1.0000   1.0000   1.0000   1.0000   1.0000   1.0000
     1.0000   1.0000   1.0000   1.0000   1.0000   1.0000   1.0000   1.0000
     1.0000   1.0000   1.0000   1.0000   1.0000   1.0000   1.0000   1.0000
     1.0000   1.0000   1.0000   1.0000   1.0000   1.0000   1.0000   1.0000
     1.0000   1.0000   1.0000   1.0001   1.0001   1.0001   1.0001   1.0001
     1.0001   1.0002   1.0002   1.0003   1.0003   1.0003   1.0003   1.0004
     1.0004   1.0005   1.0005   1.0005   1.0005   1.0006   1.0007   1.0007
     1.0007   1.0008   1.0009   1.0009   1.0010   1.0011   1.0012   1.0013
     1.0014   1.0015   1.0016   1.0017   1.0018   1.0021   1.0028   1.0029
     1.0029   1.0033   1.0034   1.0044   1.0058   1.0060   1.0067   1.0071
     1.0074   1.0081   1.0088   1.0093   1.0099   1.0103   1.0107   1.0112
     1.0119   1.0128   1.0135   1.0144   1.0152   1.0162   1.0162   1.0166
     1.0176   1.0195   1.0199   1.0213   1.0226   1.0234   1.0236   1.0257
     1.0294   1.0304   1.0323   1.0328   1.0330   1.0339   1.0345   1.0359
     1.0372   1.0379   1.0388   1.0394   1.0411   1.0428   1.0450   1.0473
     1.0511   1.0530   1.0550   1.0552   1.0568   1.0585   1.0608   1.0649
     1.0683   1.0714   1.0776   1.0805   1.0826   1.0832   1.0824   1.0791
     1.0775   1.0740   1.0710   1.0696   1.0541   1.0435   1.0355   1.0308
     1.0248   1.0218   1.0173   1.0101   0.9902   0.9852   0.9782   0.9696
     0.8322   0.8161   0.8101   0.7941   0.7797   0.7706   0.4251   0.3844
     0.0592   0.0493   0.0016   0.0016   0.0011   0.0009   0.0009   0.0007
     0.0006   0.0006   0.0004   0.0003   0.0002   0.0002   0.0002   0.0001
     0.0001   0.0001   0.0001   0.0001   0.0001   0.0001   0.0001   0.0000
     0.0000   0.0000   0.0000   0.0000   0.0000   0.0000   0.0000   0.0000
     0.0000   0.0000   0.0000   0.0000   0.0000   0.0000   0.0000   0.0000
     0.0000   0.0000   0.0000   0.0000   0.0000   0.0000   0.0000   0.0000
     0.0000   0.0000   0.0000   0.0000   0.0000   0.0000   0.0000   0.0000
     0.0000   0.0000   0.0000   0.0000   0.0000   0.0000   0.0000   0.0000
     0.0000   0.0000   0.0000   0.0000   0.0000   0.0000   0.0000   0.0000
     0.0000   0.0000   0.0000   0.0000   0.0000   0.0000   0.0000   0.0000
     0.0000   0.0000   0.0000   0.0000   0.0000   0.0000

          k = 0.0000-0.4880-0.4664 (138782 PWs)   bands (ev):

    -5.6892  -5.6794  -5.6651  -5.6532  -5.2645  -5.2390  -5.2121  -5.2062
    -5.1869  -5.1568  -5.1412  -5.1103  -4.8593  -4.8011  -4.7899  -4.7834
    -4.7643  -4.7407  -4.7333  -4.6859  -4.4916  -4.4629  -4.4416  -4.4302
    -4.4025  -4.3889  -4.3684  -4.3318  -4.3172  -4.3046  -4.2926  -4.2757
    -4.2464  -4.2277  -4.2141  -4.1714  -4.0100  -3.9624  -3.9285  -3.9201
    -3.8833  -3.8760  -3.8605  -3.8502  -3.8224  -3.8087  -3.7985  -3.7796
    -3.7606  -3.7293  -3.7056  -3.6959  -3.6849  -3.6293  -3.5395  -3.5344
    -3.4176  -3.4146  -3.3861  -3.3705  -3.3564  -3.3526  -3.2660  -3.2539
    -3.2425  -3.2284  -3.1494  -3.1367  -3.1222  -3.1028  -3.0949  -3.0742
    -3.0676  -3.0540  -3.0495  -3.0303  -3.0262  -3.0016  -2.9853  -2.9713
    -2.9640  -2.9595  -2.9515  -2.9296  -2.9257  -2.8571  -2.8330  -2.8136
    -2.8117  -2.7909  -2.7838  -2.7232  -2.6978  -2.6581  -2.6318  -2.6089
    -2.5565  -2.5482  -2.5108  -2.5089  -2.4916  -2.4700  -2.4460  -2.2132
    -1.9257  -1.9223  -1.8977  -1.8351  -1.4490  -1.4357  -1.4292  -1.3860
    -1.1029  -1.0564  -0.9818  -0.9676  -0.9634  -0.9570  -0.9542  -0.9369
    -0.9252  -0.9022  -0.8963  -0.8851  -0.8687  -0.8624  -0.8599  -0.8494
    -0.8453  -0.8319  -0.8276  -0.8171  -0.8039  -0.7812  -0.7799  -0.7752
    -0.7709  -0.7625  -0.7571  -0.7515  -0.7487  -0.7323  -0.7237  -0.7101
    -0.7007  -0.6762  -0.6669  -0.6638  -0.6600  -0.6534  -0.6404  -0.6389
    -0.6222  -0.6177  -0.6067  -0.6014  -0.5868  -0.5830  -0.5724  -0.5679
    -0.5658  -0.5601  -0.5573  -0.5531  -0.5479  -0.5130  -0.4374   0.0711
     0.3293   0.3396   0.4521   0.4629   0.4810   0.4818   0.4852   0.4934
     0.4971   0.5039   0.5103   0.5129   0.5200   0.5244   0.5307   0.5370
     0.5502   0.5937   0.6254   0.6524   0.6578   0.6829   0.7139   0.7613
     0.7966   0.8091   0.8429   1.2060   1.5640   1.5941   1.8122   1.8276
     1.8466   1.8546   1.8666   1.8736   1.8815   1.8903   1.9067   1.9074
     1.9146   1.9185   1.9421   1.9502   1.9514   1.9630   1.9665   1.9778
     1.9852   1.9986   2.0036   2.0076   2.0107   2.0132   2.0204   2.0251
     2.0300   2.0433   2.0502   2.0589   2.0778   2.0796   2.0892   2.0941
     2.1186   2.1379   2.1510   2.1727   2.2208   2.2335   2.2635   2.2819
     2.2929   2.3077   2.3200   2.3244   2.3375   2.3511   2.3653   2.3861
     2.3935   2.3978   2.4143   2.4171   2.4319   2.4592   2.4689   2.4848
     2.5111   2.5755   2.6224   2.6449   2.6629   2.6791   2.7214   2.7257
     2.7450   2.7502   2.7866   2.7917   2.7974   2.8312   2.8542   2.8659
     2.8950   2.9190   2.9307   2.9375   2.9566   2.9616   2.9736   2.9820
     2.9922   3.0042   3.0085   3.0345   3.0392   3.0460   3.0590   3.0664
     3.0749   3.0816   3.0887   3.1151   3.1288   3.1435   3.1545   3.1719
     3.2112   3.2151   3.2268   3.2552   3.2648   3.2717   3.2820   3.3184
     3.3276   3.3331   3.3455   3.3549   3.3560   3.3801   3.3829   3.3922
[...]
     atom   27 type  1   force =    -0.00001327   -0.00000314   -0.00000955
     atom   28 type  1   force =    -0.00001141    0.00000109   -0.00001488
     atom   29 type  1   force =    -0.00001159    0.00000320   -0.00002047
     atom   30 type  1   force =    -0.00000756    0.00000261   -0.00001441
     atom   31 type  1   force =    -0.00000492   -0.00000253   -0.00002171
     atom   32 type  1   force =    -0.00000641    0.00000118   -0.00001769
     atom   33 type  1   force =    -0.00000506    0.00000275   -0.00001393
     atom   34 type  1   force =    -0.00000346    0.00000260   -0.00000182
     atom   35 type  1   force =    -0.00000578    0.00000234   -0.00000990
     atom   36 type  1   force =    -0.00000130    0.00000306    0.00000168
     atom   37 type  1   force =     0.00000016    0.00000003    0.00001215
     atom   38 type  1   force =     0.00000012    0.00000070    0.00001787
     atom   39 type  1   force =    -0.00000200    0.00000212    0.00000701
     atom   40 type  1   force =    -0.00000118    0.00000217    0.00001644
     atom   41 type  1   force =     0.00000266    0.00000023    0.00002253
     atom   42 type  1   force =    -0.00000053    0.00000032    0.00002083
     atom   43 type  1   force =    -0.00000081   -0.00000153    0.00002126
     atom   44 type  1   force =    -0.00000433   -0.00000346    0.00001322
     atom   45 type  1   force =    -0.00000806    0.00000140    0.00000969
     atom   46 type  1   force =    -0.00001378    0.00000124   -0.00000338
     atom   47 type  1   force =     0.00000193   -0.00000399    0.00001514
     atom   48 type  1   force =    -0.00000550   -0.00000433    0.00000253
     atom   49 type  1   force =    -0.00000080   -0.00000677   -0.00000661
     atom   50 type  1   force =    -0.00000452   -0.00000391   -0.00001413
     atom   51 type  1   force =    -0.00000655   -0.00000358   -0.00000701
     atom   52 type  1   force =    -0.00000666   -0.00000270   -0.00001314
     atom   53 type  1   force =    -0.00000846   -0.00000208   -0.00001679
     atom   54 type  1   force =    -0.00000520    0.00000062   -0.00001203
     atom   55 type  1   force =     0.00000086   -0.00000490   -0.00001670
     atom   56 type  1   force =    -0.00000220   -0.00000399   -0.00001452
     atom   57 type  1   force =    -0.00000134   -0.00000236   -0.00001086
     atom   58 type  1   force =    -0.00000137   -0.00000027   -0.00000040
     atom   59 type  1   force =    -0.00000189   -0.00000320   -0.00000723
     atom   60 type  1   force =    -0.00000247   -0.00000258    0.00000095
     atom   61 type  1   force =    -0.00000152    0.00000119    0.00000829
     atom   62 type  1   force =    -0.00000217   -0.00000102    0.00001218
     atom   63 type  1   force =    -0.00000031   -0.00000232    0.00000859
     atom   64 type  1   force =    -0.00000133   -0.00000081    0.00001448
     atom   65 type  1   force =    -0.00000105   -0.00000073    0.00001847
     atom   66 type  1   force =    -0.00000359   -0.00000091    0.00001543
     atom   67 type  1   force =    -0.00000402   -0.00000121    0.00001654
     atom   68 type  1   force =    -0.00000560   -0.00000038    0.00001140
     atom   69 type  1   force =    -0.00000647   -0.00000392    0.00001010
     atom   70 type  1   force =    -0.00000791   -0.00000247   -0.00000018
     atom   71 type  1   force =    -0.00000180   -0.00000275    0.00000849
     atom   72 type  1   force =    -0.00000534    0.00000012    0.00000249
     atom   73 type  1   force =    -0.00000654   -0.00000274   -0.00000764
     atom   74 type  1   force =    -0.00000233   -0.00000215   -0.00001144
     atom   75 type  1   force =     0.00000155   -0.00000135   -0.00000669
     atom   76 type  1   force =     0.00000980    0.00000196   -0.00000951
     atom   77 type  1   force =     0.00000015   -0.00000268   -0.00001250
     atom   78 type  1   force =     0.00000342    0.00000215   -0.00001034
     atom   79 type  1   force =    -0.00000401   -0.00000143   -0.00001357
     atom   80 type  1   force =     0.00000144    0.00000095   -0.00000838
     atom   81 type  1   force =    -0.00000228   -0.00000351   -0.00000535
     atom   82 type  1   force =    -0.00000065    0.00000009    0.00000187
     atom   83 type  1   force =     0.00000244    0.00000116   -0.00000431
     atom   84 type  1   force =     0.00000224    0.00000438   -0.00000019
     atom   85 type  1   force =    -0.00000116   -0.00000136    0.00000713
     atom   86 type  1   force =     0.00000024    0.00000019    0.00001095
     atom   87 type  1   force =    -0.00000107    0.00000056    0.00001062
     atom   88 type  1   force =    -0.00000278    0.00000370    0.00001227
     atom   89 type  1   force =    -0.00000494    0.00000011    0.00001370
     atom   90 type  1   force =    -0.00000535    0.00000076    0.00000913
     atom   91 type  1   force =    -0.00000297    0.00000125    0.00001108
     atom   92 type  1   force =     0.00000167    0.00000334    0.00000876
     atom   93 type  1   force =     0.00000036   -0.00000385    0.00000554
     atom   94 type  1   force =     0.00000505   -0.00000142   -0.00000061
     atom   95 type  1   force =    -0.00000955    0.00000236    0.00000463
     atom   96 type  1   force =    -0.00000755    0.00000215   -0.00000405
     atom   97 type  1   force =    -0.00001150    0.00000127   -0.00001064
     atom   98 type  1   force =    -0.00000430    0.00000164   -0.00001243
     atom   99 type  1   force =     0.00000121    0.00000254   -0.00000857
     atom  100 type  1   force =     0.00000702    0.00000113   -0.00001192
     atom  101 type  1   force =     0.00000525    0.00000020   -0.00001015
     atom  102 type  1   force =     0.00000900    0.00000079   -0.00000875
     atom  103 type  1   force =    -0.00000753    0.00000159   -0.00001467
     atom  104 type  1   force =    -0.00000071    0.00000294   -0.00000881
     atom  105 type  1   force =     0.00000006    0.00000004   -0.00000339
     atom  106 type  1   force =     0.00000268    0.00000128    0.00000495
     atom  107 type  1   force =     0.00000444   -0.00000019   -0.00000284
     atom  108 type  1   force =     0.00000368   -0.00000069    0.00000176
     atom  109 type  1   force =     0.00000052    0.00000224    0.00000757
     atom  110 type  1   force =    -0.00000049    0.00000318    0.00000949
     atom  111 type  1   force =     0.00000079    0.00000011    0.00001108
     atom  112 type  1   force =    -0.00000049   -0.00000034    0.00001386
     atom  113 type  1   force =    -0.00000504    0.00000119    0.00001551
     atom  114 type  1   force =    -0.00000621    0.00000250    0.00000813
     atom  115 type  1   force =    -0.00000164    0.00000096    0.00001153
     atom  116 type  1   force =     0.00000178    0.00000315    0.00000812
     atom  117 type  1   force =    -0.00000254    0.00000205    0.00000282
     atom  118 type  1   force =     0.00000663    0.00000275   -0.00000245
     atom  119 type  1   force =    -0.00000960   -0.00000116    0.00000384
     atom  120 type  1   force =    -0.00000485    0.00000190   -0.00000409
     atom  121 type  1   force =    -0.00000846   -0.00000098   -0.00000784
     atom  122 type  1   force =    -0.00000306    0.00000072   -0.00001216
     atom  123 type  1   force =     0.00000044   -0.00000218   -0.00000780
     atom  124 type  1   force =     0.00000304   -0.00000065   -0.00001283
     atom  125 type  1   force =     0.00000091    0.00000051   -0.00001180
     atom  126 type  1   force =     0.00000175   -0.00000191   -0.00001003
     atom  127 type  1   force =    -0.00000510   -0.00000211   -0.00001206
     atom  128 type  1   force =    -0.00000260   -0.00000186   -0.00001047
     atom  129 type  1   force =    -0.00000278    0.00000105   -0.00000509
     atom  130 type  1   force =    -0.00000133   -0.00000078    0.00000175
     atom  131 type  1   force =    -0.00000146   -0.00000248   -0.00000532
     atom  132 type  1   force =     0.00000007   -0.00000117    0.00000166
     atom  133 type  1   force =     0.00000115   -0.00000193    0.00000883
     atom  134 type  1   force =     0.00000245   -0.00000247    0.00001327
     atom  135 type  1   force =    -0.00000286   -0.00000251    0.00000747
     atom  136 type  1   force =    -0.00000180   -0.00000139    0.00001161
     atom  137 type  1   force =    -0.00000168   -0.00000368    0.00001452
     atom  138 type  1   force =    -0.00000009   -0.00000279    0.00000957
     atom  139 type  1   force =     0.00000135   -0.00000455    0.00001369
     atom  140 type  1   force =     0.00000383   -0.00000377    0.00001069
     atom  141 type  1   force =     0.00000035   -0.00000007    0.00000318
     atom  142 type  1   force =     0.00000393   -0.00000010   -0.00000345
     atom  143 type  1   force =    -0.00000557   -0.00000290    0.00000647
     atom  144 type  1   force =    -0.00000275   -0.00000185   -0.00000120
     atom  145 type  1   force =     0.00000720   -0.00000128   -0.00000738
     atom  146 type  1   force =     0.00000936    0.00000363   -0.00001335
     atom  147 type  1   force =     0.00000940    0.00000578   -0.00000728
     atom  148 type  1   force =     0.00000356    0.00000722   -0.00001686
     atom  149 type  1   force =     0.00000498    0.00000315   -0.00001861
     atom  150 type  1   force =     0.00000014    0.00000273   -0.00001802
     atom  151 type  1   force =     0.00000798    0.00000423   -0.00001367
     atom  152 type  1   force =     0.00000574    0.00000661   -0.00001567
     atom  153 type  1   force =     0.00000149    0.00000087   -0.00000672
     atom  154 type  1   force =     0.00000083    0.00000207   -0.00000097
     atom  155 type  1   force =     0.00000069    0.00000501   -0.00001138
     atom  156 type  1   force =    -0.00000197    0.00000372   -0.00000421
     atom  157 type  1   force =     0.00000263   -0.00000411    0.00000900
     atom  158 type  1   force =     0.00000314   -0.00000160    0.00001652
     atom  159 type  1   force =     0.00000042    0.00000234    0.00000482
     atom  160 type  1   force =     0.00000161    0.00000344    0.00001145
     atom  161 type  1   force =     0.00000403   -0.00000429    0.00001454
     atom  162 type  1   force =     0.00000759   -0.00000201    0.00001379
     atom  163 type  1   force =     0.00000509   -0.00000005    0.00001739
     atom  164 type  1   force =     0.00000625    0.00000326    0.00001921
     atom  165 type  1   force =     0.00000532   -0.00000042    0.00000814
     atom  166 type  1   force =     0.00000218    0.00000703   -0.00000075
     atom  167 type  1   force =     0.00000741    0.00000019    0.00000755
     atom  168 type  1   force =     0.00001335    0.00000410    0.00000245
     atom  169 type  1   force =     0.00001325    0.00000127   -0.00000471
     atom  170 type  1   force =     0.00001441    0.00000118   -0.00001103
     atom  171 type  1   force =     0.00001195   -0.00000327   -0.00000464
     atom  172 type  1   force =     0.00000475   -0.00000466   -0.00001497
     atom  173 type  1   force =     0.00000611    0.00000372   -0.00001786
     atom  174 type  1   force =    -0.00000168    0.00000259   -0.00002120
     atom  175 type  1   force =     0.00001200   -0.00000198   -0.00001159
     atom  176 type  1   force =     0.00000707   -0.00000448   -0.00001302
     atom  177 type  1   force =     0.00000508    0.00000252   -0.00000831
     atom  178 type  1   force =     0.00000075    0.00000253   -0.00000412
     atom  179 type  1   force =     0.00000058   -0.00000081   -0.00001298
     atom  180 type  1   force =    -0.00000093    0.00000157   -0.00000385
     atom  181 type  1   force =    -0.00000092    0.00000249    0.00000456
     atom  182 type  1   force =     0.00000059    0.00000233    0.00001526
     atom  183 type  1   force =     0.00000100    0.00000053    0.00000555
     atom  184 type  1   force =     0.00000073    0.00000275    0.00001177
     atom  185 type  1   force =     0.00000173    0.00000247    0.00001201
     atom  186 type  1   force =     0.00000700    0.00000315    0.00001418
     atom  187 type  1   force =     0.00000296    0.00000198    0.00001720
     atom  188 type  1   force =     0.00000297    0.00000100    0.00001714
     atom  189 type  1   force =     0.00001034    0.00000250    0.00001319
     atom  190 type  1   force =     0.00000789    0.00000106    0.00000477
     atom  191 type  1   force =     0.00000755    0.00000212    0.00000641
     atom  192 type  1   force =     0.00001042    0.00000123    0.00000002
     atom  193 type  1   force =     0.00000932   -0.00000098   -0.00000893
     atom  194 type  1   force =     0.00000853   -0.00000291   -0.00001486
     atom  195 type  1   force =     0.00000600   -0.00000309   -0.00000886
     atom  196 type  1   force =     0.00000483   -0.00000035   -0.00001804
     atom  197 type  1   force =     0.00000717   -0.00000525   -0.00001700
     atom  198 type  1   force =     0.00000323   -0.00000434   -0.00001570
     atom  199 type  1   force =     0.00000525   -0.00000226   -0.00001500
     atom  200 type  1   force =     0.00000376   -0.00000132   -0.00001309
     atom  201 type  1   force =     0.00000424   -0.00000459   -0.00000536
     atom  202 type  1   force =     0.00000301   -0.00000357    0.00000240
     atom  203 type  1   force =     0.00000364   -0.00000434   -0.00000810
     atom  204 type  1   force =     0.00000181   -0.00000292    0.00000163
     atom  205 type  1   force =     0.00000013   -0.00000051    0.00000713
     atom  206 type  1   force =    -0.00000010    0.00000001    0.00001385
     atom  207 type  1   force =     0.00000299   -0.00000472    0.00000934
     atom  208 type  1   force =     0.00000392   -0.00000379    0.00001444
     atom  209 type  1   force =     0.00000255   -0.00000009    0.00001338
     atom  210 type  1   force =     0.00000445    0.00000017    0.00001176
     atom  211 type  1   force =     0.00000185   -0.00000298    0.00001648
     atom  212 type  1   force =     0.00000308   -0.00000200    0.00001441
     atom  213 type  1   force =     0.00000570   -0.00000161    0.00000950
     atom  214 type  1   force =     0.00000335   -0.00000276    0.00000012
     atom  215 type  1   force =     0.00000570   -0.00000326    0.00000453
     atom  216 type  2   force =     0.00000065   -0.00000007   -0.00000083
     atom  217 type  2   force =    -0.00000108   -0.00000031   -0.00000343
     atom  218 type  2   force =     0.00000118   -0.00000119   -0.00000438
     atom  219 type  2   force =    -0.00000128   -0.00000072    0.00000163

     Total force =     0.055622     Total SCF correction =     0.000191


     Computing stress (Cartesian axis) and pressure

          total   stress  (Ry/bohr**3)                   (kbar)     P=  -15.20
   0.00004665   0.00013050  -0.00025064          6.86     19.20    -36.87
   0.00013050  -0.00006360  -0.00004653         19.20     -9.36     -6.84
  -0.00025064  -0.00004653  -0.00029307        -36.87     -6.84    -43.11

     kinetic stress (kbar)   2198.95     17.59    -35.19
                               17.59   2179.59     -5.93
                              -35.19     -5.93   2143.46

     local   stress (kbar)  -1054.85    -41.14     57.51
                              -41.14  -1183.53      9.73
                               57.51      9.73  -1359.89

     nonloc. stress (kbar)   2466.55      0.72     -4.24
                                0.72   2479.28     -1.28
                               -4.24     -1.28   2493.34

     hartree stress (kbar)    183.23     15.67    -21.33
                               15.67    200.16     -3.06
                              -21.33     -3.06    226.10

     exc-cor stress (kbar)   -774.51     -0.02      0.23
                               -0.02   -774.06      0.03
                                0.23      0.03   -773.30

     corecor stress (kbar)      0.00      0.00      0.00
                                0.00      0.00      0.00
                                0.00      0.00      0.00

     ewald   stress (kbar)  -3012.51     26.38    -33.85
                               26.38  -2910.80     -6.34
                              -33.85     -6.34  -2772.81

     hubbard stress (kbar)      0.00      0.00      0.00
                                0.00      0.00      0.00
                                0.00      0.00      0.00

     london  stress (kbar)      0.00      0.00      0.00
                                0.00      0.00      0.00
                                0.00      0.00      0.00

     DFT-D3  stress (kbar)      0.00      0.00      0.00
                                0.00      0.00      0.00
                                0.00      0.00      0.00

     XDM     stress (kbar)      0.00      0.00      0.00
                                0.00      0.00      0.00
                                0.00      0.00      0.00

     dft-nl  stress (kbar)      0.00      0.00      0.00
                                0.00      0.00      0.00
                                0.00      0.00      0.00

     TS-vdW  stress (kbar)      0.00      0.00      0.00
                                0.00      0.00      0.00
                                0.00      0.00      0.00



     Writing output data file vacancy_optimize1.save

     init_run     :    262.60s CPU    276.44s WALL (       1 calls)
     electrons    :   9511.18s CPU  10045.18s WALL (       1 calls)
     forces       :     87.80s CPU     88.42s WALL (       1 calls)
     stress       :    805.80s CPU    808.76s WALL (       1 calls)

     Called by init_run:
     wfcinit      :    249.44s CPU    263.19s WALL (       1 calls)
     wfcinit:atom :      0.75s CPU      1.55s WALL (       8 calls)
     wfcinit:wfcr :    237.73s CPU    249.91s WALL (       8 calls)
     potinit      :      5.35s CPU      5.39s WALL (       1 calls)

     Called by electrons:
     c_bands      :   8745.55s CPU   9200.15s WALL (      20 calls)
     sum_band     :    758.86s CPU    836.91s WALL (      20 calls)
     v_of_rho     :      5.60s CPU      5.93s WALL (      20 calls)
     v_h          :      0.29s CPU      0.31s WALL (      20 calls)
     v_xc         :      5.31s CPU      5.62s WALL (      20 calls)
     mix_rho      :      1.01s CPU      1.26s WALL (      20 calls)

     Called by c_bands:
     init_us_2    :     28.16s CPU     30.53s WALL (     344 calls)
     cegterg      :   8665.39s CPU   9100.92s WALL (     160 calls)

     Called by sum_band:

     Called by *egterg:
     h_psi        :   5008.89s CPU   5332.63s WALL (     840 calls)
     g_psi        :     12.80s CPU     12.81s WALL (     672 calls)
     cdiaghg      :   1306.28s CPU   1308.57s WALL (     824 calls)
     cegterg:over :   1049.65s CPU   1056.49s WALL (     672 calls)
     cegterg:upda :    655.06s CPU    660.81s WALL (     672 calls)
     cegterg:last :    385.88s CPU    389.04s WALL (     160 calls)

     Called by h_psi:
     h_psi:pot    :   4989.79s CPU   5310.79s WALL (     840 calls)
     h_psi:calbec :    886.72s CPU    894.52s WALL (     840 calls)
     vloc_psi     :   3244.73s CPU   3555.67s WALL (     840 calls)
     add_vuspsi   :    858.33s CPU    860.60s WALL (     840 calls)

     General routines
     calbec       :   1042.32s CPU   1050.43s WALL (     880 calls)
     fft          :      3.28s CPU      3.71s WALL (     229 calls)
     fftw         :   3773.20s CPU   4155.14s WALL (  484250 calls)

     Parallel routines
     fft_scatt_xy :    338.53s CPU    339.68s WALL (  484479 calls)
     fft_scatt_yz :   1576.53s CPU   1950.36s WALL (  484479 calls)

     PWSCF        :     2h57m CPU        3h 7m WALL


   This run was terminated on:   0:16:58   8Nov2020            

=------------------------------------------------------------------------------=
   JOB DONE.
=------------------------------------------------------------------------------=
