
     Program PWSCF v.6.2 (svn rev. 14038) starts on  7Nov2020 at  8:56:27 

     This program is part of the open-source Quantum ESPRESSO suite
     for quantum simulation of materials; please cite
         "P. Giannozzi et al., J. Phys.:Condens. Matter 21 395502 (2009);
         "P. Giannozzi et al., J. Phys.:Condens. Matter 29 465901 (2017);
          URL http://www.quantum-espresso.org", 
     in publications or presentations arising from this work. More details at
     http://www.quantum-espresso.org/quote

     Parallel version (MPI), running on     8 processors

     MPI processes distributed on     1 nodes
     R & G space division:  proc/nbgrp/npool/nimage =       8
     Waiting for input...
     Reading input from standard input
Warning: card &IONS ignored
Warning: card / ignored

     Current dimensions of program PWSCF are:
     Max number of different atomic species (ntypx) = 10
     Max number of k-points (npk) =  40000
     Max angular momentum in pseudopotentials (lmaxx) =  3

     Subspace diagonalization in iterative solution of the eigenvalue problem:
     a serial algorithm will be used


     Parallelization info
     --------------------
     sticks:   dense  smooth     PW     G-vecs:    dense   smooth      PW
     Min        1599    1599    422               137396   137396   18611
     Max        1600    1600    423               137398   137398   18613
     Sum       12793   12793   3379              1099177  1099177  148895



     bravais-lattice index     =            0
     lattice parameter (alat)  =      30.8755  a.u.
     unit-cell volume          =   29894.6607 (a.u.)^3
     number of atoms/cell      =          220
     number of atomic types    =            2
     number of electrons       =       865.00
     number of Kohn-Sham states=          520
     kinetic-energy cutoff     =      42.0000  Ry
     charge density cutoff     =     168.0000  Ry
     convergence threshold     =      1.0E-08
     mixing beta               =       0.3000
     number of iterations used =            8  plain     mixing
     Exchange-correlation      = SLA-PW-PBX-PBC ( 1  4  3  4 0 0)

     celldm(1)=  30.875477  celldm(2)=   0.000000  celldm(3)=   0.000000
     celldm(4)=   0.000000  celldm(5)=   0.000000  celldm(6)=   0.000000

     crystal axes: (cart. coord. in units of alat)
               a(1) = (   1.000000   0.000000   0.000000 )  
               a(2) = (  -0.006487   1.004792   0.000000 )  
               a(3) = (  -0.032108   0.019693   1.010826 )  

     reciprocal axes: (cart. coord. in units 2 pi/alat)
               b(1) = (  1.000000  0.006456  0.031638 )  
               b(2) = (  0.000000  0.995230 -0.019389 )  
               b(3) = (  0.000000 -0.000000  0.989290 )  


     PseudoPot. # 1 for Si read from file:
     ./Si.pbe-hgh.UPF
     MD5 check sum: 9a9f0f6e09139bfdb36b03ff6bc35900
     Pseudo is Norm-conserving, Zval =  4.0
     Generated in analytical, separable form
     Using radial grid of 1141 points,  3 beta functions with: 
                l(1) =   0
                l(2) =   0
                l(3) =   1

     PseudoPot. # 2 for H  read from file:
     ./H.pbe-hgh.UPF
     MD5 check sum: 5f350582108a937bec95f27f5610ab08
     Pseudo is Norm-conserving, Zval =  1.0
     Generated in analytical, separable form
     Using radial grid of  929 points,  0 beta functions with: 

     atomic species   valence    mass     pseudopotential
        Si             4.00    28.08000     Si( 1.00)
        H              1.00     1.00784     H ( 1.00)

     No symmetry found


                                    s                        frac. trans.

      isym =  1     identity                                     

 cryst.   s( 1) = (     1          0          0      )
                  (     0          1          0      )
                  (     0          0          1      )

 cart.    s( 1) = (  1.0000000  0.0000000  0.0000000 )
                  (  0.0000000  1.0000000  0.0000000 )
                  (  0.0000000  0.0000000  1.0000000 )


   Cartesian axes

     site n.     atom                  positions (alat units)
         1           Si  tau(   1) = (   0.7127267   0.9403184   0.9249236  )
         2           Si  tau(   2) = (   0.0874790   0.0905349   0.0888589  )
         3           Si  tau(   3) = (   0.1369269   0.1884210   1.0104789  )
         4           Si  tau(   4) = (   0.2469942   0.2542543   0.0849747  )
         5           Si  tau(   5) = (   0.1581328   1.0068980   0.1709963  )
         6           Si  tau(   6) = (   0.2424403   0.0897111   0.2542034  )
         7           Si  tau(   7) = (  -0.0052459   0.1696500   0.1677142  )
         8           Si  tau(   8) = (   0.0738256   0.2560843   0.2525558  )
         9           Si  tau(   9) = (   0.9821892   1.0089439   0.3376430  )
        10           Si  tau(  10) = (   0.0685316   0.0915738   0.4213546  )
        11           Si  tau(  11) = (   0.1551602   0.1724436   0.3372043  )
        12           Si  tau(  12) = (   0.2344061   0.2594813   0.4215082  )
        13           Si  tau(  13) = (   0.1447752   1.0131297   0.5050994  )
        14           Si  tau(  14) = (   0.2306128   0.0951483   0.5895711  )
        15           Si  tau(  15) = (  -0.0165062   0.1759237   0.5053683  )
        16           Si  tau(  16) = (   0.0628217   0.2628177   0.5897217  )
        17           Si  tau(  17) = (  -0.0269730   1.0164659   0.6728378  )
        18           Si  tau(  18) = (   0.0574665   0.0995866   0.7572266  )
        19           Si  tau(  19) = (   0.1450447   0.1793217   0.6735424  )
        20           Si  tau(  20) = (   0.2240549   0.2659521   0.7583941  )
        21           Si  tau(  21) = (   0.1446994   0.0199025   0.8388306  )
        22           Si  tau(  22) = (   0.2217236   0.1037170   0.9275457  )
        23           Si  tau(  23) = (  -0.0268797   0.1811124   0.8443143  )
        24           Si  tau(  24) = (   0.0521620   0.2693401   0.9272424  )
        25           Si  tau(  25) = (  -0.0011673   0.3332103   0.0000035  )
        26           Si  tau(  26) = (   0.0780451   0.4199873   0.0843859  )
        27           Si  tau(  27) = (   0.1643669   0.5006826   0.0000270  )
        28           Si  tau(  28) = (   0.2440783   0.5871331   0.0844670  )
        29           Si  tau(  29) = (   0.1602499   0.3368556   0.1685451  )
        30           Si  tau(  30) = (   0.2394819   0.4235917   0.2530986  )
        31           Si  tau(  31) = (  -0.0075212   0.5038046   0.1681690  )
        32           Si  tau(  32) = (   0.0719420   0.5900715   0.2529793  )
        33           Si  tau(  33) = (  -0.0118489   0.3398771   0.3366352  )
        34           Si  tau(  34) = (   0.0671923   0.4266236   0.4211494  )
        35           Si  tau(  35) = (   0.1540031   0.5070623   0.3371396  )
        36           Si  tau(  36) = (   0.2329350   0.5944037   0.4213505  )
        37           Si  tau(  37) = (   0.1491441   0.3434491   0.5054876  )
        38           Si  tau(  38) = (   0.2284862   0.4301378   0.5899825  )
        39           Si  tau(  39) = (  -0.0185229   0.5098093   0.5053208  )
        40           Si  tau(  40) = (   0.0612978   0.5964467   0.5888827  )
        41           Si  tau(  41) = (  -0.0229148   0.3456868   0.6745522  )
        42           Si  tau(  42) = (   0.0564359   0.4331855   0.7581748  )
        43           Si  tau(  43) = (   0.1430302   0.5138366   0.6740791  )
        44           Si  tau(  44) = (   0.2216443   0.6013357   0.7587550  )
        45           Si  tau(  45) = (   0.1384942   0.3498106   0.8423866  )
        46           Si  tau(  46) = (   0.2178424   0.4366758   0.9268098  )
        47           Si  tau(  47) = (  -0.0290569   0.5169897   0.8422178  )
        48           Si  tau(  48) = (   0.0502769   0.6038644   0.9265581  )
        49           Si  tau(  49) = (  -0.0352817   0.6879381   1.0103050  )
        50           Si  tau(  50) = (   0.0767751   0.7536827   0.0843755  )
        51           Si  tau(  51) = (   0.1645918   0.8348504   0.0035312  )
        52           Si  tau(  52) = (   0.2426412   0.9241227   0.0858754  )
        53           Si  tau(  53) = (   0.1585990   0.6708218   0.1687654  )
        54           Si  tau(  54) = (   0.2370911   0.7586340   0.2529055  )
        55           Si  tau(  55) = (  -0.0043191   0.8393565   0.1692243  )
        56           Si  tau(  56) = (   0.0709202   0.9275848   0.2548109  )
        57           Si  tau(  57) = (  -0.0127192   0.6729811   0.3383961  )
        58           Si  tau(  58) = (   0.0653387   0.7614520   0.4218974  )
        59           Si  tau(  59) = (   0.1518917   0.8421371   0.3376845  )
        60           Si  tau(  60) = (   0.2309941   0.9293015   0.4217882  )
        61           Si  tau(  61) = (   0.1476473   0.6781426   0.5056483  )
        62           Si  tau(  62) = (   0.2261383   0.7654042   0.5904111  )
        63           Si  tau(  63) = (   0.9784092   0.8453974   0.5043646  )
        64           Si  tau(  64) = (   0.0581475   0.9322148   0.5888099  )
        65           Si  tau(  65) = (  -0.0246374   0.6793772   0.6723254  )
        66           Si  tau(  66) = (   0.0527606   0.7671492   0.7569304  )
        67           Si  tau(  67) = (   0.1400642   0.8495557   0.6742277  )
        68           Si  tau(  68) = (   0.2213975   0.9377283   0.7566444  )
        69           Si  tau(  69) = (   0.1361939   0.6857749   0.8429992  )
        70           Si  tau(  70) = (   0.2169273   0.7709093   0.9290963  )
        71           Si  tau(  71) = (   0.9646815   0.8499695   0.8385880  )
        72           Si  tau(  72) = (   0.0682137   0.9204019   0.9060717  )
        73           Si  tau(  73) = (   0.3280914   1.0037109   0.0000300  )
        74           Si  tau(  74) = (   0.4133568   0.0858833   0.0845408  )
        75           Si  tau(  75) = (   0.4997285   0.1664690   0.0001538  )
        76           Si  tau(  76) = (   0.5782599   0.2536831   0.0848476  )
        77           Si  tau(  77) = (   0.4886250   1.0068084   0.1685127  )
        78           Si  tau(  78) = (   0.5733162   0.0893064   0.2534999  )
        79           Si  tau(  79) = (   0.3280291   0.1696823   0.1687038  )
        80           Si  tau(  80) = (   0.4068490   0.2568568   0.2531693  )
        81           Si  tau(  81) = (   0.3174846   1.0099122   0.3375268  )
        82           Si  tau(  82) = (   0.4025058   0.0923930   0.4218236  )
        83           Si  tau(  83) = (   0.4884260   0.1732892   0.3373863  )
        84           Si  tau(  84) = (   0.5681757   0.2597554   0.4216538  )
        85           Si  tau(  85) = (   0.4782537   1.0137338   0.5055270  )
        86           Si  tau(  86) = (   0.5637409   0.0956712   0.5899350  )
        87           Si  tau(  87) = (   0.3166571   0.1760909   0.5054360  )
        88           Si  tau(  88) = (   0.3960029   0.2627488   0.5899471  )
        89           Si  tau(  89) = (   0.3081172   1.0167060   0.6720130  )
        90           Si  tau(  90) = (   0.3924449   0.0985695   0.7578756  )
        91           Si  tau(  91) = (   0.4784907   0.1795655   0.6739346  )
        92           Si  tau(  92) = (   0.5574756   0.2663599   0.7585397  )
        93           Si  tau(  93) = (   0.4676815   1.0199568   0.8424311  )
        94           Si  tau(  94) = (   0.5530446   0.1022509   0.9269281  )
        95           Si  tau(  95) = (   0.3073222   0.1829628   0.8418196  )
        96           Si  tau(  96) = (   0.3860515   0.2698353   0.9266177  )
        97           Si  tau(  97) = (   0.3007394   0.3538250   1.0106891  )
        98           Si  tau(  98) = (   0.4115523   0.4208842   0.0845705  )
        99           Si  tau(  99) = (   0.4981727   0.5010802   0.0004253  )
       100           Si  tau( 100) = (   0.5769562   0.5877703   0.0853516  )
       101           Si  tau( 101) = (   0.4932783   0.3375472   0.1688675  )
       102           Si  tau( 102) = (   0.5729099   0.4241354   0.2532078  )
       103           Si  tau( 103) = (   0.3260104   0.5041708   0.1688099  )
       104           Si  tau( 104) = (   0.4051282   0.5913801   0.2530511  )
       105           Si  tau( 105) = (   0.3210350   0.3399813   0.3372882  )
       106           Si  tau( 106) = (   0.4002230   0.4268186   0.4217245  )
       107           Si  tau( 107) = (   0.4865060   0.5071553   0.3370618  )
       108           Si  tau( 108) = (   0.5651709   0.5937981   0.4217275  )
       109           Si  tau( 109) = (   0.4824722   0.3433530   0.5056625  )
       110           Si  tau( 110) = (   0.5616191   0.4301410   0.5901442  )
       111           Si  tau( 111) = (   0.3147575   0.5108189   0.5056170  )
       112           Si  tau( 112) = (   0.3936439   0.5977113   0.5902504  )
       113           Si  tau( 113) = (   0.3105093   0.3465211   0.6739528  )
       114           Si  tau( 114) = (   0.3896302   0.4335195   0.7582971  )
       115           Si  tau( 115) = (   0.4760262   0.5141096   0.6739609  )
       116           Si  tau( 116) = (   0.5553354   0.6007473   0.7584629  )
       117           Si  tau( 117) = (   0.4721478   0.3504428   0.8423968  )
       118           Si  tau( 118) = (   0.5511397   0.4370249   0.9271393  )
       119           Si  tau( 119) = (   0.3040248   0.5172464   0.8422431  )
       120           Si  tau( 120) = (   0.3841791   0.6033839   0.9264954  )
       121           Si  tau( 121) = (   0.3317374   0.6666960   0.0005247  )
       122           Si  tau( 122) = (   0.4097766   0.7547775   0.0847666  )
       123           Si  tau( 123) = (   0.4631178   0.8553918   1.0106153  )
       124           Si  tau( 124) = (   0.5737265   0.9229284   0.0840867  )
       125           Si  tau( 125) = (   0.4923380   0.6722655   0.1694811  )
       126           Si  tau( 126) = (   0.5718215   0.7598365   0.2537192  )
       127           Si  tau( 127) = (   0.3241105   0.8387906   0.1686441  )
       128           Si  tau( 128) = (   0.4027615   0.9260992   0.2532371  )
       129           Si  tau( 129) = (   0.3192463   0.6749642   0.3368819  )
       130           Si  tau( 130) = (   0.3982590   0.7617391   0.4214678  )
       131           Si  tau( 131) = (   0.4846951   0.8426031   0.3372620  )
       132           Si  tau( 132) = (   0.5630656   0.9293103   0.4223411  )
       133           Si  tau( 133) = (   0.4799312   0.6779643   0.5056251  )
       134           Si  tau( 134) = (   0.5586547   0.7645472   0.5908255  )
       135           Si  tau( 135) = (   0.3128005   0.8454492   0.5055775  )
       136           Si  tau( 136) = (   0.3927254   0.9322217   0.5891142  )
       137           Si  tau( 137) = (   0.3081282   0.6816521   0.6742894  )
       138           Si  tau( 138) = (   0.3867879   0.7686859   0.7590107  )
       139           Si  tau( 139) = (   0.4733682   0.8486965   0.6743733  )
       140           Si  tau( 140) = (   0.5526330   0.9356985   0.7583395  )
       141           Si  tau( 141) = (   0.4696502   0.6847320   0.8421279  )
       142           Si  tau( 142) = (   0.5486158   0.7710882   0.9270847  )
       143           Si  tau( 143) = (   0.3010131   0.8529648   0.8429183  )
       144           Si  tau( 144) = (   0.3813528   0.9393449   0.9267330  )
       145           Si  tau( 145) = (   0.6283562   1.0232866   1.0107669  )
       146           Si  tau( 146) = (   0.7442799   0.0875114   0.0839843  )
       147           Si  tau( 147) = (   0.8309254   0.1681291   0.0007337  )
       148           Si  tau( 148) = (   0.9123278   0.2532329   0.0842789  )
       149           Si  tau( 149) = (   0.8259249   0.0080079   0.1711995  )
       150           Si  tau( 150) = (   0.9093059   0.0907648   0.2542853  )
       151           Si  tau( 151) = (   0.6597195   0.1701866   0.1693143  )
       152           Si  tau( 152) = (   0.7402411   0.2563755   0.2531693  )
       153           Si  tau( 153) = (   0.6545908   0.0070145   0.3393018  )
       154           Si  tau( 154) = (   0.7357244   0.0930188   0.4224665  )
       155           Si  tau( 155) = (   0.8223697   0.1734088   0.3377522  )
       156           Si  tau( 156) = (   0.9015654   0.2602486   0.4218478  )
       157           Si  tau( 157) = (   0.8111224   1.0126137   0.5050721  )
       158           Si  tau( 158) = (   0.8969722   0.0950997   0.5893780  )
       159           Si  tau( 159) = (   0.6502598   0.1765942   0.5061022  )
       160           Si  tau( 160) = (   0.7296586   0.2633552   0.5901806  )
       161           Si  tau( 161) = (   0.6387380   1.0165632   0.6739134  )
       162           Si  tau( 162) = (   0.7239356   0.0996473   0.7572226  )
       163           Si  tau( 163) = (   0.8117351   0.1791346   0.6736324  )
       164           Si  tau( 164) = (   0.8910781   0.2646676   0.7594070  )
       165           Si  tau( 165) = (   0.7981585   1.0196416   0.8395563  )
       166           Si  tau( 166) = (   0.8787113   0.1050178   0.9235600  )
       167           Si  tau( 167) = (   0.6394828   0.1827626   0.8426313  )
       168           Si  tau( 168) = (   0.7179018   0.2704015   0.9267451  )
       169           Si  tau( 169) = (   0.6649751   0.3340722   0.0006083  )
       170           Si  tau( 170) = (   0.7445858   0.4207575   0.0849278  )
       171           Si  tau( 171) = (   0.7988888   0.5199701   1.0103121  )
       172           Si  tau( 172) = (   0.9105507   0.5869115   0.0834558  )
       173           Si  tau( 173) = (   0.8267380   0.3368504   0.1686391  )
       174           Si  tau( 174) = (   0.9059408   0.4237400   0.2529753  )
       175           Si  tau( 175) = (   0.6598137   0.5051453   0.1694225  )
       176           Si  tau( 176) = (   0.7391067   0.5931758   0.2535211  )
       177           Si  tau( 177) = (   0.6546549   0.3402003   0.3371841  )
       178           Si  tau( 178) = (   0.7337260   0.4272283   0.4214506  )
       179           Si  tau( 179) = (   0.8201194   0.5074607   0.3367020  )
       180           Si  tau( 180) = (   0.8991231   0.5935687   0.4218640  )
       181           Si  tau( 181) = (   0.8158814   0.3438605   0.5056160  )
       182           Si  tau( 182) = (   0.8952961   0.4297249   0.5904485  )
       183           Si  tau( 183) = (   0.6477859   0.5105597   0.5054674  )
       184           Si  tau( 184) = (   0.7269701   0.5969255   0.5904050  )
       185           Si  tau( 185) = (   0.6439007   0.3467316   0.6741812  )
       186           Si  tau( 186) = (   0.7232202   0.4330324   0.7587762  )
       187           Si  tau( 187) = (   0.8092739   0.5132673   0.6740468  )
       188           Si  tau( 188) = (   0.8887358   0.6001182   0.7577896  )
       189           Si  tau( 189) = (   0.8055667   0.3493065   0.8425039  )
       190           Si  tau( 190) = (   0.8847004   0.4362646   0.9266400  )
       191           Si  tau( 191) = (   0.6374381   0.5170235   0.8424048  )
       192           Si  tau( 192) = (   0.7163932   0.6036870   0.9268431  )
       193           Si  tau( 193) = (   0.6627317   0.6675745   0.0001799  )
       194           Si  tau( 194) = (   0.7432612   0.7561292   0.0823539  )
       195           Si  tau( 195) = (   0.7963261   0.8560707   1.0056956  )
       196           Si  tau( 196) = (   0.8906179   0.9084873   0.1017184  )
       197           Si  tau( 197) = (   0.8266205   0.6722649   0.1671259  )
       198           Si  tau( 198) = (   0.9095123   0.7567330   0.2515146  )
       199           Si  tau( 199) = (   0.6577151   0.8410265   0.1678840  )
       200           Si  tau( 200) = (   0.7328594   0.9313881   0.2535808  )
       201           Si  tau( 201) = (   0.6524580   0.6754490   0.3389733  )
       202           Si  tau( 202) = (   0.7295031   0.7607325   0.4267908  )
       203           Si  tau( 203) = (   0.8103833   0.8339941   0.3293725  )
       204           Si  tau( 204) = (   0.8946583   0.9273911   0.4202770  )
       205           Si  tau( 205) = (   0.8141783   0.6771122   0.5069654  )
       206           Si  tau( 206) = (   0.8934099   0.7646134   0.5900472  )
       207           Si  tau( 207) = (   0.6444498   0.8465058   0.5077245  )
       208           Si  tau( 208) = (   0.7247939   0.9330563   0.5905384  )
       209           Si  tau( 209) = (   0.6416752   0.6812379   0.6741216  )
       210           Si  tau( 210) = (   0.7209035   0.7683149   0.7582789  )
       211           Si  tau( 211) = (   0.8071500   0.8485818   0.6733898  )
       212           Si  tau( 212) = (   0.8851240   0.9372111   0.7566080  )
       213           Si  tau( 213) = (   0.8026314   0.6837036   0.8416356  )
       214           Si  tau( 214) = (   0.8819418   0.7700099   0.9257889  )
       215           Si  tau( 215) = (   0.6344505   0.8515454   0.8420602  )
       216           H   tau( 216) = (   0.1231722   0.8660036   0.8532136  )
       217           H   tau( 217) = (   0.8365733   0.8537809   0.1530097  )
       218           H   tau( 218) = (   0.0463529   0.0314802   0.0295074  )
       219           H   tau( 219) = (   0.9216919   0.0452009   0.9803108  )
       220           H   tau( 220) = (   0.7571454   0.7717598   0.2766397  )

   Crystallographic axes

     site n.     atom                  positions (cryst. coord.)
         1           Si  tau(   1) = (  0.7480600  0.9179000  0.9150180  )
         2           Si  tau(   2) = (  0.0908748  0.0883802  0.0879073  )
         3           Si  tau(   3) = (  0.1701130  0.1679300  0.9996570  )
         4           Si  tau(   4) = (  0.2513240  0.2513940  0.0840647  )
         5           Si  tau(   5) = (  0.1700430  0.9987800  0.1691650  )
         6           Si  tau(   6) = (  0.2510620  0.0843544  0.2514810  )
         7           Si  tau(   7) = (  0.0011554  0.1655890  0.1659180  )
         8           Si  tau(   8) = (  0.0834692  0.2499660  0.2498510  )
         9           Si  tau(   9) = (  0.9993850  0.9975850  0.3340270  )
        10           Si  tau(  10) = (  0.0824537  0.0829673  0.4168420  )
        11           Si  tau(  11) = (  0.1669420  0.1650830  0.3335930  )
        12           Si  tau(  12) = (  0.2494170  0.2500710  0.4169940  )
        13           Si  tau(  13) = (  0.1672960  0.9985040  0.4996900  )
        14           Si  tau(  14) = (  0.2498800  0.0832632  0.5832570  )
        15           Si  tau(  15) = (  0.0006184  0.1652860  0.4999560  )
        16           Si  tau(  16) = (  0.0831761  0.2501300  0.5834060  )
        17           Si  tau(  17) = (  0.0008764  0.9985720  0.6656320  )
        18           Si  tau(  18) = (  0.0820667  0.0844296  0.7491170  )
        19           Si  tau(  19) = (  0.1675120  0.1654070  0.6663290  )
        20           Si  tau(  20) = (  0.2497660  0.2499790  0.7502720  )
        21           Si  tau(  21) = (  0.1713670  0.0035434  0.8298470  )
        22           Si  tau(  22) = (  0.2517390  0.0852380  0.9176120  )
        23           Si  tau(  23) = (  0.0010021  0.1638780  0.8352720  )
        24           Si  tau(  24) = (  0.0832370  0.2500770  0.9173120  )
        25           Si  tau(  25) = (  0.0009839  0.3316210  0.0000034  )
        26           Si  tau(  26) = (  0.0834262  0.4163480  0.0834822  )
        27           Si  tau(  27) = (  0.1676000  0.4982940  0.0000267  )
        28           Si  tau(  28) = (  0.2505410  0.5826950  0.0835624  )
        29           Si  tau(  29) = (  0.1677570  0.3319810  0.1667400  )
        30           Si  tau(  30) = (  0.2502240  0.4166640  0.2503880  )
        31           Si  tau(  31) = (  0.0010518  0.4981410  0.1663680  )
        32           Si  tau(  32) = (  0.0837551  0.5823520  0.2502700  )
        33           Si  tau(  33) = (  0.0009957  0.3317290  0.3330300  )
        34           Si  tau(  34) = (  0.0832708  0.4164230  0.4166390  )
        35           Si  tau(  35) = (  0.1679430  0.4981070  0.3335290  )
        36           Si  tau(  36) = (  0.2501030  0.5833990  0.4168380  )
        37           Si  tau(  37) = (  0.1673540  0.3320100  0.5000740  )
        38           Si  tau(  38) = (  0.2499290  0.4166470  0.5836640  )
        39           Si  tau(  39) = (  0.0007557  0.4975800  0.4999090  )
        40           Si  tau(  40) = (  0.0837794  0.5821840  0.5825760  )
        41           Si  tau(  41) = (  0.0006585  0.3309590  0.6673280  )
        42           Si  tau(  42) = (  0.0832197  0.4164190  0.7500550  )
        43           Si  tau(  43) = (  0.1676740  0.4983160  0.6668600  )
        44           Si  tau(  44) = (  0.2495320  0.5837560  0.7506290  )
        45           Si  tau(  45) = (  0.1674040  0.3318090  0.8333650  )
        46           Si  tau(  46) = (  0.2499840  0.4166230  0.9168840  )
        47           Si  tau(  47) = (  0.0009269  0.4981940  0.8331980  )
        48           Si  tau(  48) = (  0.0834899  0.5830190  0.9166350  )
        49           Si  tau(  49) = (  0.0011236  0.6650680  0.9994850  )
        50           Si  tau(  50) = (  0.0843101  0.7484520  0.0834719  )
        51           Si  tau(  51) = (  0.1700930  0.8308000  0.0034934  )
        52           Si  tau(  52) = (  0.2513240  0.9180500  0.0849557  )
        53           Si  tau(  53) = (  0.1682690  0.6643500  0.1669580  )
        54           Si  tau(  54) = (  0.2499900  0.7501120  0.2501970  )
        55           Si  tau(  55) = (  0.0064535  0.8320720  0.1674120  )
        56           Si  tau(  56) = (  0.0849701  0.9182200  0.2520820  )
        57           Si  tau(  57) = (  0.0023316  0.6632100  0.3347720  )
        58           Si  tau(  58) = (  0.0836024  0.7496400  0.4173790  )
        59           Si  tau(  59) = (  0.1680120  0.8315730  0.3340680  )
        60           Si  tau(  60) = (  0.2503380  0.9166910  0.4172710  )
        61           Si  tau(  61) = (  0.1680230  0.6651040  0.5002330  )
        62           Si  tau(  62) = (  0.2497590  0.7503060  0.5840880  )
        63           Si  tau(  63) = (  0.9998240  0.8315860  0.4989630  )
        64           Si  tau(  64) = (  0.0827944  0.9163520  0.5825040  )
        65           Si  tau(  65) = (  0.0010196  0.6631010  0.6651250  )
        66           Si  tau(  66) = (  0.0816610  0.7488140  0.7488240  )
        67           Si  tau(  67) = (  0.1668800  0.8324310  0.6670070  )
        68           Si  tau(  68) = (  0.2513900  0.9185850  0.7485410  )
        69           Si  tau(  69) = (  0.1672920  0.6661590  0.8339710  )
        70           Si  tau(  70) = (  0.2512990  0.7492180  0.9191460  )
        71           Si  tau(  71) = (  0.9967000  0.8296560  0.8296070  )
        72           Si  tau(  72) = (  0.1028220  0.8984440  0.8963680  )
        73           Si  tau(  73) = (  0.3345720  0.9989230  0.0000297  )
        74           Si  tau(  74) = (  0.4165860  0.0838345  0.0836354  )
        75           Si  tau(  75) = (  0.5008080  0.1656720  0.0001522  )
        76           Si  tau(  76) = (  0.5825820  0.2508280  0.0839389  )
        77           Si  tau(  77) = (  0.5004560  0.9987390  0.1667080  )
        78           Si  tau(  78) = (  0.5819130  0.0839653  0.2507850  )
        79           Si  tau(  79) = (  0.3344620  0.1656020  0.1668970  )
        80           Si  tau(  80) = (  0.4165170  0.2507230  0.2504580  )
        81           Si  tau(  81) = (  0.3346830  0.9985510  0.3339120  )
        82           Si  tau(  82) = (  0.4164480  0.0837735  0.4173060  )
        83           Si  tau(  83) = (  0.5002190  0.1659210  0.3337730  )
        84           Si  tau(  84) = (  0.5831930  0.2503410  0.4171380  )
        85           Si  tau(  85) = (  0.5007920  0.9990970  0.5001130  )
        86           Si  tau(  86) = (  0.5830230  0.0837765  0.5836170  )
        87           Si  tau(  87) = (  0.3337850  0.1654510  0.5000230  )
        88           Si  tau(  88) = (  0.4163640  0.2500570  0.5836290  )
        89           Si  tau(  89) = (  0.3359420  0.9988270  0.6648160  )
        90           Si  tau(  90) = (  0.4170590  0.0834048  0.7497590  )
        91           Si  tau(  91) = (  0.5009720  0.1656420  0.6667170  )
        92           Si  tau(  92) = (  0.5831940  0.2503820  0.7504160  )
        93           Si  tau(  93) = (  0.5009190  0.9987580  0.8334090  )
        94           Si  tau(  94) = (  0.5830310  0.0837909  0.9170010  )
        95           Si  tau(  95) = (  0.3351370  0.1657680  0.8328040  )
        96           Si  tau(  96) = (  0.4171100  0.2505820  0.9166940  )
        97           Si  tau(  97) = (  0.3350000  0.3325410  0.9998650  )
        98           Si  tau(  98) = (  0.4169450  0.4172370  0.0836648  )
        99           Si  tau(  99) = (  0.5014210  0.4986820  0.0004208  )
       100           Si  tau( 100) = (  0.5834510  0.5833120  0.0844375  )
       101           Si  tau( 101) = (  0.5008000  0.3326630  0.1670590  )
       102           Si  tau( 102) = (  0.5836590  0.4172030  0.2504960  )
       103           Si  tau( 103) = (  0.3346060  0.4984930  0.1670020  )
       104           Si  tau( 104) = (  0.4169520  0.5836530  0.2503410  )
       105           Si  tau( 105) = (  0.3339010  0.3318200  0.3336760  )
       106           Si  tau( 106) = (  0.4163210  0.4166060  0.4172080  )
       107           Si  tau( 107) = (  0.5004440  0.4982010  0.3334520  )
       108           Si  tau( 108) = (  0.5823470  0.5827890  0.4172110  )
       109           Si  tau( 109) = (  0.5006870  0.3319110  0.5002470  )
       110           Si  tau( 110) = (  0.5830670  0.4166470  0.5838240  )
       111           Si  tau( 111) = (  0.3340520  0.4985790  0.5002020  )
       112           Si  tau( 112) = (  0.4161770  0.5834160  0.5839290  )
       113           Si  tau( 113) = (  0.3340690  0.3318010  0.6667350  )
       114           Si  tau( 114) = (  0.4164200  0.4167490  0.7501760  )
       115           Si  tau( 115) = (  0.5006680  0.4985900  0.6667430  )
       116           Si  tau( 116) = (  0.5832100  0.5831760  0.7503400  )
       117           Si  tau( 117) = (  0.5010620  0.3324380  0.8333750  )
       118           Si  tau( 118) = (  0.5832940  0.4169640  0.9172100  )
       119           Si  tau( 119) = (  0.3340110  0.4984490  0.8332230  )
       120           Si  tau( 120) = (  0.4173870  0.5825420  0.9165730  )
       121           Si  tau( 121) = (  0.3360580  0.6635060  0.0005191  )
       122           Si  tau( 122) = (  0.4173310  0.7495340  0.0838588  )
       123           Si  tau( 123) = (  0.5006140  0.8317170  0.9997920  )
       124           Si  tau( 124) = (  0.5823450  0.9168960  0.0831862  )
       125           Si  tau( 125) = (  0.5020400  0.6657730  0.1676660  )
       126           Si  tau( 126) = (  0.5847540  0.7512930  0.2510020  )
       127           Si  tau( 127) = (  0.3348610  0.8315200  0.1668380  )
       128           Si  tau( 128) = (  0.4167520  0.9167720  0.2505250  )
       129           Si  tau( 129) = (  0.3342620  0.6652130  0.3332740  )
       130           Si  tau( 130) = (  0.4165110  0.7499340  0.4169540  )
       131           Si  tau( 131) = (  0.5008050  0.8320450  0.3336500  )
       132           Si  tau( 132) = (  0.5824270  0.9166890  0.4178180  )
       133           Si  tau( 133) = (  0.5003050  0.6649270  0.5002100  )
       134           Si  tau( 134) = (  0.5822830  0.7494450  0.5844980  )
       135           Si  tau( 135) = (  0.3342540  0.8316140  0.5001630  )
       136           Si  tau( 136) = (  0.4173820  0.9163530  0.5828050  )
       137           Si  tau( 137) = (  0.3338620  0.6653270  0.6670680  )
       138           Si  tau( 138) = (  0.4157640  0.7503030  0.7508820  )
       139           Si  tau( 139) = (  0.5001830  0.8315730  0.6671510  )
       140           Si  tau( 140) = (  0.5826660  0.9165320  0.7502180  )
       141           Si  tau( 141) = (  0.5007140  0.6651380  0.8331090  )
       142           Si  tau( 142) = (  0.5829250  0.7494350  0.9171560  )
       143           Si  tau( 143) = (  0.3331880  0.8325530  0.8338910  )
       144           Si  tau( 144) = (  0.4167370  0.9168960  0.9168080  )
       145           Si  tau( 145) = (  0.6669410  0.9988080  0.9999420  )
       146           Si  tau( 146) = (  0.7475020  0.0854656  0.0830849  )
       147           Si  tau( 147) = (  0.8320340  0.1673130  0.0007258  )
       148           Si  tau( 148) = (  0.9166290  0.2503910  0.0833763  )
       149           Si  tau( 149) = (  0.8313930  0.0046503  0.1693660  )
       150           Si  tau( 150) = (  0.9179370  0.0854015  0.2515620  )
       151           Si  tau( 151) = (  0.6661750  0.1660920  0.1675010  )
       152           Si  tau( 152) = (  0.7499060  0.2502440  0.2504580  )
       153           Si  tau( 153) = (  0.6653710  0.0004022  0.3356680  )
       154           Si  tau( 154) = (  0.7496910  0.0843839  0.4179420  )
       155           Si  tau( 155) = (  0.8341750  0.1660330  0.3341350  )
       156           Si  tau( 156) = (  0.9165920  0.2508280  0.4173300  )
       157           Si  tau( 157) = (  0.8336390  0.9979910  0.4996630  )
       158           Si  tau( 158) = (  0.9162330  0.0832186  0.5830660  )
       159           Si  tau( 159) = (  0.6674120  0.1659390  0.5006820  )
       160           Si  tau( 160) = (  0.7500310  0.2506560  0.5838600  )
       161           Si  tau( 161) = (  0.6666220  0.9986480  0.6666960  )
       162           Si  tau( 162) = (  0.7485360  0.0844901  0.7491130  )
       163           Si  tau( 163) = (  0.8342040  0.1652190  0.6664180  )
       164           Si  tau( 164) = (  0.9168130  0.2486810  0.7512740  )
       165           Si  tau( 165) = (  0.8313030  0.9985000  0.8305650  )
       166           Si  tau( 166) = (  0.9086090  0.0866099  0.9136690  )
       167           Si  tau( 167) = (  0.6673220  0.1655530  0.8336070  )
       168           Si  tau( 168) = (  0.7489680  0.2511430  0.9168200  )
       169           Si  tau( 169) = (  0.6671510  0.3324670  0.0006018  )
       170           Si  tau( 170) = (  0.7499890  0.4171040  0.0840183  )
       171           Si  tau( 171) = (  0.8342100  0.4979010  0.9994920  )
       172           Si  tau( 172) = (  0.9169800  0.5824940  0.0825620  )
       173           Si  tau( 173) = (  0.8342480  0.3319740  0.1668330  )
       174           Si  tau( 174) = (  0.9166800  0.4168140  0.2502660  )
       175           Si  tau( 175) = (  0.6684350  0.4994510  0.1676080  )
       176           Si  tau( 176) = (  0.7509570  0.5854310  0.2508060  )
       177           Si  tau( 177) = (  0.6675190  0.3320400  0.3335730  )
       178           Si  tau( 178) = (  0.7498180  0.4170190  0.4169370  )
       179           Si  tau( 179) = (  0.8340480  0.4985120  0.3330960  )
       180           Si  tau( 180) = (  0.9163020  0.5825580  0.4173460  )
       181           Si  tau( 181) = (  0.8340980  0.3324170  0.5002010  )
       182           Si  tau( 182) = (  0.9167510  0.4162270  0.5841250  )
       183           Si  tau( 183) = (  0.6670740  0.4983240  0.5000540  )
       184           Si  tau( 184) = (  0.7495030  0.5826310  0.5840820  )
       185           Si  tau( 185) = (  0.6674690  0.3320060  0.6669610  )
       186           Si  tau( 186) = (  0.7500220  0.4162550  0.7506500  )
       187           Si  tau( 187) = (  0.8339130  0.4977500  0.6668280  )
       188           Si  tau( 188) = (  0.9165850  0.5825630  0.7496740  )
       189           Si  tau( 189) = (  0.8344770  0.3313050  0.8334810  )
       190           Si  tau( 190) = (  0.9168340  0.4162170  0.9167160  )
       191           Si  tau( 191) = (  0.6674280  0.4982240  0.8333830  )
       192           Si  tau( 192) = (  0.7496140  0.5828370  0.9169170  )
       193           Si  tau( 193) = (  0.6670470  0.6643870  0.0001780  )
       194           Si  tau( 194) = (  0.7507480  0.7509260  0.0814719  )
       195           Si  tau( 195) = (  0.8336710  0.8324880  0.9949250  )
       196           Si  tau( 196) = (  0.8997010  0.9021820  0.1006290  )
       197           Si  tau( 197) = (  0.8362480  0.6658180  0.1653360  )
       198           Si  tau( 198) = (  0.9223550  0.7482470  0.2488210  )
       199           Si  tau( 199) = (  0.6684560  0.8337600  0.1660860  )
       200           Si  tau( 200) = (  0.7468950  0.9220290  0.2508650  )
       201           Si  tau( 201) = (  0.6675430  0.6656550  0.3353430  )
       202           Si  tau( 202) = (  0.7479170  0.7488290  0.4222200  )
       203           Si  tau( 203) = (  0.8261880  0.8236300  0.3258450  )
       204           Si  tau( 204) = (  0.9139420  0.9148190  0.4157760  )
       205           Si  tau( 205) = (  0.8345890  0.6640530  0.5015360  )
       206           Si  tau( 206) = (  0.9170140  0.7495260  0.5837280  )
       207           Si  tau( 207) = (  0.6659780  0.8326240  0.5022870  )
       208           Si  tau( 208) = (  0.7495010  0.9171560  0.5842140  )
       209           Si  tau( 209) = (  0.6674010  0.6649180  0.6669020  )
       210           Si  tau( 210) = (  0.7498540  0.7499480  0.7501580  )
       211           Si  tau( 211) = (  0.8339330  0.8314780  0.6661780  )
       212           Si  tau( 212) = (  0.9151120  0.9180710  0.7485050  )
       213           Si  tau( 213) = (  0.8336730  0.6641240  0.8326220  )
       214           Si  tau( 214) = (  0.9162030  0.7483870  0.9158740  )
       215           Si  tau( 215) = (  0.6665890  0.8311570  0.8330420  )
       216           H   tau( 216) = (  0.1557570  0.8453300  0.8440760  )
       217           H   tau( 217) = (  0.8469260  0.8467420  0.1513710  )
       218           H   tau( 218) = (  0.0474897  0.0307579  0.0291914  )
       219           H   tau( 219) = (  0.9529990  0.0259779  0.9698120  )
       220           H   tau( 220) = (  0.7708800  0.7627150  0.2736770  )

     number of k points=     8  Marzari-Vanderbilt smearing, width (Ry)=  0.0500
                       cart. coord. in units 2pi/alat
        k(    1) = (   0.0000000   0.0000000   0.0000000), wk =   0.2500000
        k(    2) = (   0.0000000   0.0000000  -0.4946452), wk =   0.2500000
        k(    3) = (   0.0000000  -0.4976152   0.0096946), wk =   0.2500000
        k(    4) = (   0.0000000  -0.4976152  -0.4849506), wk =   0.2500000
        k(    5) = (  -0.5000000  -0.0032278  -0.0158191), wk =   0.2500000
        k(    6) = (  -0.5000000  -0.0032278  -0.5104643), wk =   0.2500000
        k(    7) = (  -0.5000000  -0.5008430  -0.0061245), wk =   0.2500000
        k(    8) = (  -0.5000000  -0.5008430  -0.5007697), wk =   0.2500000

                       cryst. coord.
        k(    1) = (   0.0000000   0.0000000   0.0000000), wk =   0.2500000
        k(    2) = (   0.0000000   0.0000000  -0.5000000), wk =   0.2500000
        k(    3) = (   0.0000000  -0.5000000   0.0000000), wk =   0.2500000
        k(    4) = (   0.0000000  -0.5000000  -0.5000000), wk =   0.2500000
        k(    5) = (  -0.5000000   0.0000000   0.0000000), wk =   0.2500000
        k(    6) = (  -0.5000000   0.0000000  -0.5000000), wk =   0.2500000
        k(    7) = (  -0.5000000  -0.5000000   0.0000000), wk =   0.2500000
        k(    8) = (  -0.5000000  -0.5000000  -0.5000000), wk =   0.2500000

     Dense  grid:  1099177 G-vectors     FFT dimensions: ( 128, 128, 135)

     Dynamical RAM for                 wfc:     136.28 MB

     Dynamical RAM for     wfc (w. buffer):    1226.56 MB

     Dynamical RAM for           str. fact:       4.19 MB

     Dynamical RAM for           local pot:       0.00 MB

     Dynamical RAM for          nlocal pot:     281.74 MB

     Dynamical RAM for                qrad:       1.75 MB

     Dynamical RAM for          rho,v,vnew:      12.66 MB

     Dynamical RAM for               rhoin:       4.22 MB

     Dynamical RAM for            rho*nmix:      33.54 MB

     Dynamical RAM for           G-vectors:       8.91 MB

     Dynamical RAM for          h,s,v(r/c):     198.05 MB

     Dynamical RAM for          <psi|beta>:       8.53 MB

     Dynamical RAM for                 psi:     545.14 MB

     Dynamical RAM for                hpsi:     545.14 MB

     Dynamical RAM for      wfcinit/wfcrot:     470.54 MB

     Estimated static dynamical RAM per process >       1.55 GB

     Estimated max dynamical RAM per process >       2.82 GB

     Estimated total dynamical RAM >      22.56 GB

     Initial potential from superposition of free atoms

     starting charge  864.87971, renormalised to  865.00000
     Starting wfc are  865 randomized atomic wfcs

     total cpu time spent up to now is      250.2 secs

     Self-consistent Calculation

     iteration #  1     ecut=    42.00 Ry     beta= 0.30
     Davidson diagonalization with overlap
     ethr =  1.00E-02,  avg # of iterations =  3.0

     Threshold (ethr) on eigenvalues was too large:
     Diagonalizing with lowered threshold

     Davidson diagonalization with overlap
     ethr =  7.35E-04,  avg # of iterations =  2.1

     total cpu time spent up to now is     1201.9 secs

     total energy              =   -1699.11250235 Ry
     Harris-Foulkes estimate   =   -1700.03848514 Ry
     estimated scf accuracy    <       6.22346109 Ry

     iteration #  2     ecut=    42.00 Ry     beta= 0.30
     Davidson diagonalization with overlap
     ethr =  7.19E-04,  avg # of iterations =  2.0

     total cpu time spent up to now is     1556.1 secs

     total energy              =   -1698.62433741 Ry
     Harris-Foulkes estimate   =   -1699.20483335 Ry
     estimated scf accuracy    <       2.60520078 Ry

     iteration #  3     ecut=    42.00 Ry     beta= 0.30
     Davidson diagonalization with overlap
     ethr =  3.01E-04,  avg # of iterations =  9.6

     total cpu time spent up to now is     2130.4 secs

     total energy              =   -1698.64907638 Ry
     Harris-Foulkes estimate   =   -1698.84548400 Ry
     estimated scf accuracy    <       0.84498966 Ry

     iteration #  4     ecut=    42.00 Ry     beta= 0.30
     Davidson diagonalization with overlap
     ethr =  9.77E-05,  avg # of iterations =  7.8

     total cpu time spent up to now is     2721.2 secs

     total energy              =   -1698.75251406 Ry
     Harris-Foulkes estimate   =   -1698.78991021 Ry
     estimated scf accuracy    <       0.20365742 Ry

     iteration #  5     ecut=    42.00 Ry     beta= 0.30
     Davidson diagonalization with overlap
     ethr =  2.35E-05,  avg # of iterations =  7.0

     total cpu time spent up to now is     3251.1 secs

     total energy              =   -1698.76787083 Ry
     Harris-Foulkes estimate   =   -1698.77846673 Ry
     estimated scf accuracy    <       0.05201583 Ry

     iteration #  6     ecut=    42.00 Ry     beta= 0.30
     Davidson diagonalization with overlap
     ethr =  6.01E-06,  avg # of iterations =  8.2

     total cpu time spent up to now is     3840.7 secs

     total energy              =   -1698.77103865 Ry
     Harris-Foulkes estimate   =   -1698.77677141 Ry
     estimated scf accuracy    <       0.03282764 Ry

     iteration #  7     ecut=    42.00 Ry     beta= 0.30
     Davidson diagonalization with overlap
     ethr =  3.80E-06,  avg # of iterations =  7.0

     total cpu time spent up to now is     4350.5 secs

     total energy              =   -1698.77380514 Ry
     Harris-Foulkes estimate   =   -1698.77514053 Ry
     estimated scf accuracy    <       0.00844554 Ry

     iteration #  8     ecut=    42.00 Ry     beta= 0.30
     Davidson diagonalization with overlap
     ethr =  9.76E-07,  avg # of iterations =  4.2

     total cpu time spent up to now is     4760.1 secs

     total energy              =   -1698.77453941 Ry
     Harris-Foulkes estimate   =   -1698.77470629 Ry
     estimated scf accuracy    <       0.00102973 Ry

     iteration #  9     ecut=    42.00 Ry     beta= 0.30
     Davidson diagonalization with overlap
     ethr =  1.19E-07,  avg # of iterations =  3.5

     total cpu time spent up to now is     5207.6 secs

     total energy              =   -1698.77461917 Ry
     Harris-Foulkes estimate   =   -1698.77475461 Ry
     estimated scf accuracy    <       0.00065081 Ry

     iteration # 10     ecut=    42.00 Ry     beta= 0.30
     Davidson diagonalization with overlap
     ethr =  7.52E-08,  avg # of iterations =  2.4

     total cpu time spent up to now is     5593.9 secs

     total energy              =   -1698.77468965 Ry
     Harris-Foulkes estimate   =   -1698.77471355 Ry
     estimated scf accuracy    <       0.00013859 Ry

     iteration # 11     ecut=    42.00 Ry     beta= 0.30
     Davidson diagonalization with overlap
     ethr =  1.60E-08,  avg # of iterations =  3.1

     total cpu time spent up to now is     5997.2 secs

     total energy              =   -1698.77470648 Ry
     Harris-Foulkes estimate   =   -1698.77470870 Ry
     estimated scf accuracy    <       0.00002127 Ry

     iteration # 12     ecut=    42.00 Ry     beta= 0.30
     Davidson diagonalization with overlap
     ethr =  2.46E-09,  avg # of iterations =  3.0

     total cpu time spent up to now is     6446.8 secs

     total energy              =   -1698.77471035 Ry
     Harris-Foulkes estimate   =   -1698.77471046 Ry
     estimated scf accuracy    <       0.00000598 Ry

     iteration # 13     ecut=    42.00 Ry     beta= 0.30
     Davidson diagonalization with overlap
     ethr =  6.91E-10,  avg # of iterations =  3.2

     total cpu time spent up to now is     6867.2 secs

     total energy              =   -1698.77471161 Ry
     Harris-Foulkes estimate   =   -1698.77471137 Ry
     estimated scf accuracy    <       0.00000232 Ry

     iteration # 14     ecut=    42.00 Ry     beta= 0.30
     Davidson diagonalization with overlap
     ethr =  2.68E-10,  avg # of iterations =  3.4

     total cpu time spent up to now is     7280.5 secs

     total energy              =   -1698.77471219 Ry
     Harris-Foulkes estimate   =   -1698.77471202 Ry
     estimated scf accuracy    <       0.00000115 Ry

     iteration # 15     ecut=    42.00 Ry     beta= 0.30
     Davidson diagonalization with overlap
     ethr =  1.33E-10,  avg # of iterations =  2.6

     total cpu time spent up to now is     7676.1 secs

     total energy              =   -1698.77471249 Ry
     Harris-Foulkes estimate   =   -1698.77471233 Ry
     estimated scf accuracy    <       0.00000037 Ry

     iteration # 16     ecut=    42.00 Ry     beta= 0.30
     Davidson diagonalization with overlap
     ethr =  4.32E-11,  avg # of iterations =  3.2

     total cpu time spent up to now is     8084.3 secs

     total energy              =   -1698.77471265 Ry
     Harris-Foulkes estimate   =   -1698.77471255 Ry
     estimated scf accuracy    <       0.00000020 Ry

     iteration # 17     ecut=    42.00 Ry     beta= 0.30
     Davidson diagonalization with overlap
     ethr =  2.26E-11,  avg # of iterations =  3.4

     total cpu time spent up to now is     8488.1 secs

     total energy              =   -1698.77471268 Ry
     Harris-Foulkes estimate   =   -1698.77471268 Ry
     estimated scf accuracy    <       0.00000015 Ry

     iteration # 18     ecut=    42.00 Ry     beta= 0.30
     Davidson diagonalization with overlap
     ethr =  1.78E-11,  avg # of iterations =  3.0

     total cpu time spent up to now is     8875.2 secs

     total energy              =   -1698.77471273 Ry
     Harris-Foulkes estimate   =   -1698.77471270 Ry
     estimated scf accuracy    <       0.00000004 Ry

     iteration # 19     ecut=    42.00 Ry     beta= 0.30
     Davidson diagonalization with overlap
     ethr =  4.30E-12,  avg # of iterations =  2.9

     total cpu time spent up to now is     9291.8 secs

     End of self-consistent calculation

          k = 0.0000 0.0000 0.0000 (137363 PWs)   bands (ev):

    -5.8807  -5.4874  -5.4318  -5.3997  -5.3927  -5.3864  -5.3667  -5.0742
    -5.0246  -4.9842  -4.9569  -4.9540  -4.9454  -4.9295  -4.9255  -4.9217
    -4.9195  -4.8962  -4.8579  -4.6138  -4.5986  -4.5485  -4.5388  -4.5078
    -4.4844  -4.4753  -4.4456  -4.0762  -4.0339  -4.0167  -4.0110  -3.9946
    -3.9781  -3.7851  -3.7736  -3.7511  -3.7028  -3.6944  -3.6841  -3.6683
    -3.6651  -3.6526  -3.6486  -3.6394  -3.6281  -3.6202  -3.6091  -3.6067
    -3.6040  -3.5999  -3.5944  -3.5903  -3.5822  -3.5701  -3.5663  -3.5613
    -3.5589  -3.5478  -3.5411  -3.5403  -3.5375  -3.5145  -3.4941  -3.4668
    -3.4552  -3.4488  -3.4399  -3.4344  -3.4293  -3.4154  -3.4046  -3.3949
    -3.3918  -3.3843  -3.3716  -3.3576  -3.3481  -3.3405  -3.3345  -3.3300
    -3.0446  -2.7811  -2.7760  -2.7484  -2.7323  -2.6992  -2.6945  -2.6622
    -2.6378  -2.6103  -2.6008  -2.5775  -2.4884  -1.8906  -1.8690  -1.8491
    -1.8113  -1.8016  -1.7950  -1.7918  -1.7784  -1.7742  -1.7721  -1.7687
    -1.7577  -1.7523  -1.7519  -1.7451  -1.7290  -1.7261  -1.7104  -1.6723
    -1.6694  -1.6572  -1.6377  -1.6282  -1.6262  -1.6238  -1.6138  -1.5990
    -1.5933  -1.5889  -1.3622  -0.9988  -0.8760  -0.8443  -0.8062  -0.8001
    -0.7939  -0.7818  -0.7721  -0.7644  -0.7492  -0.7342  -0.7194  -0.7131
    -0.6617  -0.6516  -0.6361  -0.6193  -0.6154  -0.6116  -0.6037  -0.5919
    -0.5885  -0.5791  -0.5781  -0.5666  -0.5646  -0.5585  -0.5486  -0.5400
    -0.5375  -0.5326  -0.5284  -0.5018  -0.4938  -0.4432  -0.1688   0.1735
     0.2382   0.2534   0.2860   0.2943   0.2999   0.3100   0.3131   0.3136
     0.3151   0.3175   0.3196   0.3211   0.3278   0.3304   0.3338   0.3363
     0.3382   0.3412   0.3497   0.3576   0.3605   0.3772   0.5030   0.5387
     0.5872   0.6624   0.6869   0.6955   0.7382   0.7768   0.8510   0.8786
     0.9092   0.9385   0.9545   0.9709   1.3100   1.3391   1.5451   1.5937
     1.6124   1.6188   1.6232   1.6316   1.6397   1.6467   1.6608   1.6675
     1.6954   1.8955   1.9429   1.9887   2.1688   2.1746   2.1809   2.1892
     2.2057   2.2372   2.2456   2.2624   2.2687   2.2761   2.2814   2.2864
     2.2976   2.3088   2.3249   2.3276   2.3349   2.3487   2.3586   2.3702
     2.3738   2.3864   2.3894   2.4021   2.4053   2.4111   2.4128   2.4171
     2.4207   2.4247   2.4259   2.4315   2.4352   2.4358   2.4364   2.4404
     2.4419   2.4457   2.4525   2.4571   2.4593   2.4666   2.4691   2.4736
     2.4770   2.4799   2.4811   2.4866   2.4935   2.4938   2.5009   2.5220
     2.5301   2.5645   2.5910   2.6681   2.7273   2.9580   2.9819   3.0190
     3.0526   3.0622   3.0814   3.1157   3.1328   3.1486   3.1516   3.1565
     3.1626   3.1778   3.1812   3.1825   3.1948   3.2029   3.2063   3.2258
     3.2332   3.2418   3.2524   3.2716   3.2848   3.2904   3.3012   3.3076
     3.3363   3.3492   3.3663   3.3858   3.4024   3.4115   3.4436   3.4701
     3.4901   3.5155   3.5350   3.5465   3.5522   3.5632   3.5805   3.5864
     3.5929   3.6055   3.6143   3.6208   3.6289   3.6312   3.6361   3.6419
     3.6488   3.6530   3.6582   3.6628   3.6630   3.6674   3.6778   3.6795
     3.6836   3.6891   3.6948   3.6982   3.7026   3.7047   3.7152   3.7187
     3.7201   3.7253   3.7280   3.7340   3.7365   3.7406   3.7493   3.7582
     3.7685   3.7817   3.7919   3.8040   3.8189   3.8290   3.8348   3.8427
     3.8573   3.8717   3.8848   3.8918   3.9046   3.9280   3.9362   3.9525
     3.9562   3.9757   4.0172   4.0216   4.0280   4.0353   4.0471   4.0520
     4.0619   4.0746   4.0891   4.1254   4.1804   4.1959   4.2014   4.2176
     4.2245   4.2281   4.2344   4.2550   4.2950   4.3045   4.3270   4.3344
     4.3435   4.3501   4.3804   4.4002   4.4144   4.5989   4.6252   4.6323
     4.6796   4.7252   4.7390   4.7644   4.7930   4.8035   4.8274   4.8348
     4.8528   4.8548   4.8675   4.8867   4.9156   4.9233   4.9368   4.9552
     4.9667   4.9719   4.9909   5.0590   5.0625   5.0742   5.0841   5.1333
     5.1429   5.2323   5.2521   5.2544   5.2703   5.3516   5.3791   5.3873
     5.4129   5.4238   5.4504   5.4830   5.5116   5.6972   5.7633   5.9606
     6.0883   6.5079   6.5421   6.6647   6.6832   6.7062   6.7194   6.7374
     6.8009   6.8271   6.8616   6.8855   6.9925   7.3101   7.3215   7.3462
     7.3796   7.3860   7.4302   7.4644   7.5139   7.5231   7.5479   7.5660
     7.5910   7.5974   7.6124   7.6212   7.6312   7.6415   7.6608   7.6658
     7.6721   7.6879   7.7070   7.7251   7.7382   7.7594   7.7672   7.7762
     7.7804   7.8195   7.8339   7.8632   7.8875   7.8943   7.9104   7.9244
     7.9376   7.9417   7.9569   7.9652   7.9708   7.9832   7.9960   8.0080
     8.0093   8.0181   8.0460   8.0742   8.0836   8.1094   8.1148   8.1244
     8.1702   8.1824   8.2020   8.2206   8.2548   8.2755   8.3490   8.3576
     8.3644   8.4161   8.4272   8.4512   8.4765   8.4872   8.5092   8.5429
     8.5661   8.6120   8.6184   8.6281   8.6307   8.6467   8.6468   8.6543

     occupation numbers 
     1.0000   1.0000   1.0000   1.0000   1.0000   1.0000   1.0000   1.0000
     1.0000   1.0000   1.0000   1.0000   1.0000   1.0000   1.0000   1.0000
     1.0000   1.0000   1.0000   1.0000   1.0000   1.0000   1.0000   1.0000
     1.0000   1.0000   1.0000   1.0000   1.0000   1.0000   1.0000   1.0000
     1.0000   1.0000   1.0000   1.0000   1.0000   1.0000   1.0000   1.0000
     1.0000   1.0000   1.0000   1.0000   1.0000   1.0000   1.0000   1.0000
     1.0000   1.0000   1.0000   1.0000   1.0000   1.0000   1.0000   1.0000
     1.0000   1.0000   1.0000   1.0000   1.0000   1.0000   1.0000   1.0000
     1.0000   1.0000   1.0000   1.0000   1.0000   1.0000   1.0000   1.0000
     1.0000   1.0000   1.0000   1.0000   1.0000   1.0000   1.0000   1.0000
     1.0000   1.0000   1.0000   1.0000   1.0000   1.0000   1.0000   1.0000
     1.0000   1.0000   1.0000   1.0000   1.0000   1.0000   1.0000   1.0000
     1.0000   1.0000   1.0000   1.0000   1.0000   1.0000   1.0000   1.0000
     1.0000   1.0000   1.0000   1.0000   1.0000   1.0000   1.0000   1.0000
     1.0000   1.0000   1.0000   1.0000   1.0000   1.0000   1.0000   1.0000
     1.0000   1.0000   1.0000   1.0000   1.0000   1.0000   1.0000   1.0000
     1.0000   1.0000   1.0000   1.0000   1.0000   1.0000   1.0000   1.0000
     1.0000   1.0000   1.0000   1.0000   1.0000   1.0000   1.0000   1.0000
     1.0000   1.0000   1.0000   1.0000   1.0000   1.0000   1.0000   1.0000
     1.0000   1.0000   1.0000   1.0000   1.0000   1.0000   1.0000   1.0000
     1.0000   1.0000   1.0000   1.0000   1.0000   1.0000   1.0000   1.0000
     1.0000   1.0000   1.0000   1.0000   1.0000   1.0000   1.0000   1.0000
     1.0000   1.0000   1.0000   1.0000   1.0000   1.0000   1.0000   1.0000
     1.0000   1.0000   1.0000   1.0000   1.0000   1.0000   1.0000   1.0000
     1.0000   1.0000   1.0000   1.0000   1.0000   1.0000   1.0000   1.0000
     1.0000   1.0000   1.0000   1.0000   1.0000   1.0000   1.0000   1.0000
     1.0000   1.0000   1.0000   1.0000   1.0000   1.0000   1.0000   1.0000
     1.0000   1.0000   1.0000   1.0000   1.0000   1.0000   1.0000   1.0000
     1.0000   1.0000   1.0000   1.0000   1.0000   1.0000   1.0000   1.0000
     1.0000   1.0000   1.0000   1.0000   1.0000   1.0000   1.0000   1.0000
     1.0000   1.0000   1.0000   1.0000   1.0000   1.0000   1.0000   1.0000
     1.0000   1.0000   1.0000   1.0000   1.0000   1.0000   1.0000   1.0000
     1.0000   1.0000   1.0000   1.0000   1.0000   1.0000   1.0000   1.0000
     1.0000   1.0000   1.0000   1.0000   1.0000   1.0000   1.0000   1.0000
     1.0000   1.0000   1.0000   1.0000   1.0000   1.0000   1.0000   1.0000
     1.0000   1.0000   1.0000   1.0000   1.0000   1.0000   1.0000   1.0000
     1.0000   1.0000   1.0000   1.0000   1.0000   1.0000   1.0001   1.0001
     1.0001   1.0001   1.0001   1.0001   1.0001   1.0001   1.0002   1.0002
     1.0002   1.0003   1.0003   1.0004   1.0004   1.0004   1.0005   1.0005
     1.0005   1.0006   1.0006   1.0006   1.0007   1.0007   1.0007   1.0007
     1.0008   1.0008   1.0008   1.0008   1.0008   1.0009   1.0009   1.0009
     1.0010   1.0010   1.0010   1.0011   1.0011   1.0011   1.0012   1.0012
     1.0012   1.0013   1.0013   1.0014   1.0014   1.0014   1.0015   1.0016
     1.0017   1.0018   1.0020   1.0021   1.0023   1.0025   1.0026   1.0027
     1.0029   1.0032   1.0035   1.0036   1.0039   1.0045   1.0047   1.0051
     1.0052   1.0058   1.0073   1.0074   1.0077   1.0080   1.0085   1.0087
     1.0091   1.0097   1.0105   1.0125   1.0160   1.0172   1.0176   1.0189
     1.0194   1.0197   1.0203   1.0221   1.0259   1.0268   1.0292   1.0300
     1.0310   1.0317   1.0353   1.0377   1.0395   1.0644   1.0678   1.0687
     1.0743   1.0787   1.0798   1.0815   1.0827   1.0830   1.0833   1.0833
     1.0829   1.0829   1.0824   1.0813   1.0787   1.0778   1.0760   1.0732
     1.0711   1.0701   1.0661   1.0465   1.0452   1.0409   1.0371   1.0151
     1.0103   0.9564   0.9424   0.9406   0.9288   0.8610   0.8356   0.8278
     0.8030   0.7922   0.7652   0.7311   0.7006   0.4965   0.4266   0.2462
     0.1593   0.0241   0.0200   0.0099   0.0088   0.0077   0.0070   0.0063
     0.0042   0.0035   0.0028   0.0024   0.0011   0.0001   0.0001   0.0001
     0.0000   0.0000   0.0000   0.0000   0.0000   0.0000   0.0000   0.0000
     0.0000   0.0000   0.0000   0.0000   0.0000   0.0000   0.0000   0.0000
     0.0000   0.0000   0.0000   0.0000   0.0000   0.0000   0.0000   0.0000
     0.0000   0.0000   0.0000   0.0000   0.0000   0.0000   0.0000   0.0000
     0.0000   0.0000   0.0000   0.0000   0.0000   0.0000   0.0000   0.0000
     0.0000   0.0000   0.0000   0.0000   0.0000   0.0000   0.0000   0.0000
     0.0000   0.0000   0.0000   0.0000   0.0000   0.0000   0.0000   0.0000
     0.0000   0.0000   0.0000   0.0000   0.0000   0.0000   0.0000   0.0000
     0.0000   0.0000   0.0000   0.0000   0.0000   0.0000   0.0000   0.0000

          k = 0.0000 0.0000-0.4946 (137336 PWs)   bands (ev):

    -5.7748  -5.7541  -5.3924  -5.3448  -5.2951  -5.2811  -5.2764  -5.2651
    -5.2609  -5.2292  -4.9565  -4.8689  -4.8633  -4.8505  -4.8261  -4.8218
    -4.8142  -4.8116  -4.8087  -4.7517  -4.4794  -4.4573  -4.4426  -4.4076
    -4.3726  -4.3606  -4.3394  -4.3221  -4.1542  -4.1332  -4.0671  -4.0627
    -4.0307  -4.0151  -3.9820  -3.9615  -3.9453  -3.9368  -3.9239  -3.9070
    -3.8977  -3.8823  -3.8655  -3.8037  -3.6680  -3.6497  -3.6261  -3.6124
    -3.5862  -3.5806  -3.5708  -3.5572  -3.5553  -3.5531  -3.5375  -3.5322
    -3.5240  -3.5224  -3.5111  -3.4885  -3.4827  -3.4339  -3.3742  -3.3573
    -3.3254  -3.3099  -3.2788  -3.2770  -3.2633  -3.2523  -3.2442  -3.1955
    -3.1448  -3.1272  -3.1059  -3.0920  -3.0498  -3.0060  -3.0006  -2.9560
    -2.9112  -2.9019  -2.8722  -2.8539  -2.8387  -2.8235  -2.7986  -2.7881
    -2.7704  -2.7216  -2.6903  -2.6730  -2.6545  -2.5070  -2.2639  -2.2545
    -2.2105  -2.2002  -2.0964  -2.0882  -2.0600  -2.0336  -1.8409  -1.8326
    -1.8149  -1.7843  -1.7455  -1.7398  -1.7145  -1.6912  -1.6880  -1.6309
    -1.5493  -1.5120  -1.3322  -1.3083  -1.2847  -1.2611  -1.2302  -1.2097
    -1.1996  -1.1466  -1.0289  -0.9279  -0.8596  -0.8433  -0.8293  -0.8223
    -0.8112  -0.8092  -0.8040  -0.7979  -0.7854  -0.7775  -0.7714  -0.7694
    -0.7430  -0.7271  -0.7228  -0.7119  -0.6924  -0.6699  -0.6334  -0.6260
    -0.6125  -0.5355  -0.5151  -0.4693  -0.3171  -0.2913  -0.2804  -0.2354
    -0.2214  -0.2149  -0.2031  -0.1942  -0.1749  -0.1571  -0.1520  -0.1337
    -0.1159  -0.0961  -0.0930  -0.0841  -0.0632  -0.0520  -0.0449  -0.0433
    -0.0331  -0.0243  -0.0129  -0.0087   0.0006   0.0106   0.0207   0.0239
     0.0335   0.0424   0.0790   0.4829   0.7303   0.7588   0.7693   0.7818
     0.7825   0.7899   0.8097   1.0150   1.1007   1.1398   1.1962   1.2607
     1.2708   1.2789   1.2929   1.3354   1.3809   1.4170   1.4892   1.5247
     1.5644   1.5760   1.6419   1.6795   1.7477   1.7571   1.7664   1.7866
     1.8015   1.8173   1.8277   1.8512   1.8664   1.8904   1.8943   1.9050
     1.9057   1.9205   1.9400   1.9583   2.0114   2.0305   2.0593   2.0751
     2.0846   2.1081   2.1314   2.1376   2.1624   2.1899   2.2122   2.2321
     2.2415   2.2573   2.2632   2.2693   2.2841   2.2895   2.3416   2.3518
     2.3895   2.4024   2.5312   2.5905   2.6163   2.6764   2.6868   2.6942
     2.7016   2.7106   2.7239   2.7431   2.7462   2.7485   2.7641   2.7711
     2.7805   2.7877   2.8013   2.8181   2.8262   2.8339   2.8462   2.8583
     2.8664   2.8677   2.8747   2.8788   2.8844   2.8892   2.9031   2.9087
     2.9190   2.9259   2.9399   2.9539   2.9689   2.9762   2.9890   3.0089
     3.0296   3.0376   3.0668   3.0718   3.0780   3.0823   3.0966   3.1092
     3.1208   3.1252   3.1295   3.1387   3.1462   3.1488   3.1641   3.1669
     3.1927   3.2438   3.2478   3.2520   3.2578   3.2672   3.2932   3.2947
     3.3025   3.3206   3.3248   3.3306   3.3479   3.3579   3.3657   3.3794
     3.3894   3.4143   3.4254   3.4687   3.5140   3.5495   3.5566   3.5764
     3.5820   3.6032   3.6106   3.6247   3.6312   3.6513   3.7281   3.7391
     3.7690   3.7743   3.7821   3.7839   3.8065   3.8120   3.8128   3.8321
     3.8359   3.8504   3.8766   3.8938   3.9218   3.9332   3.9425   3.9513
     3.9610   3.9654   3.9671   3.9737   3.9809   3.9869   4.0071   4.0130
     4.0211   4.0271   4.0330   4.0456   4.0533   4.0665   4.0735   4.0767
     4.0842   4.1331   4.1468   4.1590   4.1691   4.1844   4.1866   4.2109
     4.2288   4.2357   4.2429   4.2566   4.2717   4.2750   4.2912   4.3090
     4.3190   4.3216   4.3354   4.3434   4.3502   4.3572   4.3704   4.3894
     4.3951   4.4064   4.4143   4.4267   4.4492   4.4656   4.4799   4.4898
     4.5120   4.5293   4.5464   4.5654   4.5721   4.5766   4.5823   4.5901
     4.6237   4.6339   4.6516   4.6938   4.7144   4.7227   4.7322   4.7597
     4.8024   4.8111   5.0979   5.1130   5.1276   5.1375   5.1455   5.1518
     5.2316   5.2449   5.2508   5.2667   5.2728   5.2806   5.2882   5.2906
     5.3357   5.3634   5.3702   5.3815   5.5230   5.5375   5.5906   5.6067
     5.8456   6.6275   6.6948   7.0356   7.0596   7.0832   7.0979   7.1432
     7.1619   7.2032   7.2091   7.2394   7.2639   7.2784   7.3010   7.3274
     7.3371   7.3534   7.3794   7.3964   7.4419   7.4853   7.4993   7.5213
     7.5452   7.5619   7.5821   7.6216   7.6496   7.6567   7.6630   7.7021
     7.7325   7.7454   7.7687   7.7958   7.8048   7.8474   7.8618   7.8815
     7.9081   7.9333   7.9482   7.9769   7.9840   7.9906   7.9987   8.0090
     8.0203   8.0361   8.0407   8.0625   8.0798   8.0874   8.0885   8.1030
     8.1269   8.1393   8.1448   8.1548   8.1623   8.1719   8.1821   8.1990
     8.2159   8.2326   8.2370   8.2440   8.2485   8.2554   8.2623   8.2656
     8.2710   8.2785   8.2857   8.2962   8.2978   8.3009   8.3070   8.3163
     8.3368   8.3609   8.3689   8.3794   8.3883   8.3980   8.4091   8.4204

     occupation numbers 
     1.0000   1.0000   1.0000   1.0000   1.0000   1.0000   1.0000   1.0000
     1.0000   1.0000   1.0000   1.0000   1.0000   1.0000   1.0000   1.0000
     1.0000   1.0000   1.0000   1.0000   1.0000   1.0000   1.0000   1.0000
     1.0000   1.0000   1.0000   1.0000   1.0000   1.0000   1.0000   1.0000
     1.0000   1.0000   1.0000   1.0000   1.0000   1.0000   1.0000   1.0000
     1.0000   1.0000   1.0000   1.0000   1.0000   1.0000   1.0000   1.0000
     1.0000   1.0000   1.0000   1.0000   1.0000   1.0000   1.0000   1.0000
     1.0000   1.0000   1.0000   1.0000   1.0000   1.0000   1.0000   1.0000
     1.0000   1.0000   1.0000   1.0000   1.0000   1.0000   1.0000   1.0000
     1.0000   1.0000   1.0000   1.0000   1.0000   1.0000   1.0000   1.0000
     1.0000   1.0000   1.0000   1.0000   1.0000   1.0000   1.0000   1.0000
     1.0000   1.0000   1.0000   1.0000   1.0000   1.0000   1.0000   1.0000
     1.0000   1.0000   1.0000   1.0000   1.0000   1.0000   1.0000   1.0000
     1.0000   1.0000   1.0000   1.0000   1.0000   1.0000   1.0000   1.0000
     1.0000   1.0000   1.0000   1.0000   1.0000   1.0000   1.0000   1.0000
     1.0000   1.0000   1.0000   1.0000   1.0000   1.0000   1.0000   1.0000
     1.0000   1.0000   1.0000   1.0000   1.0000   1.0000   1.0000   1.0000
     1.0000   1.0000   1.0000   1.0000   1.0000   1.0000   1.0000   1.0000
     1.0000   1.0000   1.0000   1.0000   1.0000   1.0000   1.0000   1.0000
     1.0000   1.0000   1.0000   1.0000   1.0000   1.0000   1.0000   1.0000
     1.0000   1.0000   1.0000   1.0000   1.0000   1.0000   1.0000   1.0000
     1.0000   1.0000   1.0000   1.0000   1.0000   1.0000   1.0000   1.0000
     1.0000   1.0000   1.0000   1.0000   1.0000   1.0000   1.0000   1.0000
     1.0000   1.0000   1.0000   1.0000   1.0000   1.0000   1.0000   1.0000
     1.0000   1.0000   1.0000   1.0000   1.0000   1.0000   1.0000   1.0000
     1.0000   1.0000   1.0000   1.0000   1.0000   1.0000   1.0000   1.0000
     1.0000   1.0000   1.0000   1.0000   1.0000   1.0000   1.0000   1.0000
     1.0000   1.0000   1.0000   1.0000   1.0000   1.0000   1.0000   1.0000
     1.0000   1.0000   1.0000   1.0000   1.0000   1.0000   1.0000   1.0000
     1.0000   1.0000   1.0000   1.0000   1.0000   1.0000   1.0000   1.0000
     1.0000   1.0000   1.0000   1.0000   1.0000   1.0000   1.0000   1.0000
     1.0000   1.0000   1.0000   1.0000   1.0000   1.0000   1.0000   1.0000
     1.0000   1.0000   1.0000   1.0000   1.0000   1.0000   1.0000   1.0000
     1.0000   1.0000   1.0000   1.0000   1.0000   1.0000   1.0000   1.0000
     1.0000   1.0000   1.0000   1.0000   1.0000   1.0000   1.0000   1.0000
     1.0000   1.0000   1.0000   1.0000   1.0000   1.0000   1.0000   1.0000
     1.0000   1.0000   1.0000   1.0000   1.0000   1.0000   1.0000   1.0000
     1.0000   1.0000   1.0000   1.0000   1.0000   1.0000   1.0000   1.0000
     1.0001   1.0001   1.0001   1.0001   1.0001   1.0001   1.0001   1.0001
     1.0001   1.0001   1.0001   1.0002   1.0003   1.0004   1.0004   1.0005
     1.0005   1.0006   1.0006   1.0006   1.0007   1.0008   1.0013   1.0014
     1.0017   1.0018   1.0019   1.0019   1.0022   1.0022   1.0022   1.0025
     1.0026   1.0028   1.0033   1.0037   1.0043   1.0046   1.0048   1.0051
     1.0054   1.0055   1.0055   1.0058   1.0060   1.0062   1.0069   1.0071
     1.0074   1.0076   1.0079   1.0084   1.0088   1.0094   1.0097   1.0098
     1.0102   1.0129   1.0138   1.0146   1.0153   1.0163   1.0165   1.0183
     1.0198   1.0204   1.0210   1.0222   1.0236   1.0239   1.0255   1.0273
     1.0283   1.0286   1.0301   1.0310   1.0318   1.0326   1.0341   1.0364
     1.0371   1.0385   1.0395   1.0410   1.0440   1.0462   1.0481   1.0495
     1.0525   1.0549   1.0573   1.0599   1.0608   1.0614   1.0622   1.0632
     1.0676   1.0689   1.0711   1.0758   1.0777   1.0785   1.0793   1.0812
     1.0830   1.0832   1.0314   1.0248   1.0179   1.0130   1.0089   1.0056
     0.9569   0.9475   0.9432   0.9315   0.9269   0.9208   0.9149   0.9129
     0.8751   0.8502   0.8439   0.8334   0.6882   0.6724   0.6139   0.5961
     0.3453   0.0123   0.0082   0.0008   0.0007   0.0006   0.0005   0.0003
     0.0003   0.0002   0.0002   0.0002   0.0001   0.0001   0.0001   0.0001
     0.0001   0.0001   0.0000   0.0000   0.0000   0.0000   0.0000   0.0000
     0.0000   0.0000   0.0000   0.0000   0.0000   0.0000   0.0000   0.0000
     0.0000   0.0000   0.0000   0.0000   0.0000   0.0000   0.0000   0.0000
     0.0000   0.0000   0.0000   0.0000   0.0000   0.0000   0.0000   0.0000
     0.0000   0.0000   0.0000   0.0000   0.0000   0.0000   0.0000   0.0000
     0.0000   0.0000   0.0000   0.0000   0.0000   0.0000   0.0000   0.0000
     0.0000   0.0000   0.0000   0.0000   0.0000   0.0000   0.0000   0.0000
     0.0000   0.0000   0.0000   0.0000   0.0000   0.0000   0.0000   0.0000
     0.0000   0.0000   0.0000   0.0000   0.0000   0.0000   0.0000   0.0000

          k = 0.0000-0.4976 0.0097 (137408 PWs)   bands (ev):

    -5.7809  -5.7436  -5.4191  -5.2978  -5.2931  -5.2874  -5.2741  -5.2712
    -5.2634  -5.2477  -4.9552  -4.9193  -4.8668  -4.8616  -4.8354  -4.8109
    -4.8035  -4.7893  -4.7830  -4.7516  -4.4794  -4.4322  -4.4033  -4.3964
    -4.3793  -4.3603  -4.3594  -4.3175  -4.1447  -4.1253  -4.0737  -4.0440
    -4.0233  -4.0042  -3.9836  -3.9723  -3.9653  -3.9380  -3.9187  -3.9113
    -3.8991  -3.8853  -3.8760  -3.8376  -3.6826  -3.6727  -3.6625  -3.6505
    -3.6250  -3.6177  -3.6049  -3.6012  -3.5689  -3.5187  -3.5163  -3.5029
    -3.4992  -3.4884  -3.4870  -3.4802  -3.4749  -3.4165  -3.3649  -3.3539
    -3.3235  -3.3086  -3.2774  -3.2634  -3.2566  -3.2351  -3.2149  -3.1980
    -3.1737  -3.1526  -3.1484  -3.1112  -3.0381  -3.0168  -2.9991  -2.9579
    -2.9406  -2.9096  -2.8504  -2.8241  -2.8062  -2.7732  -2.7640  -2.7467
    -2.7319  -2.7114  -2.7048  -2.6818  -2.6677  -2.5025  -2.2232  -2.2121
    -2.1946  -2.1786  -2.1604  -2.1332  -2.0900  -2.0514  -1.8521  -1.8163
    -1.8033  -1.7805  -1.7739  -1.7394  -1.7140  -1.7105  -1.6983  -1.6399
    -1.6038  -1.5546  -1.3184  -1.2953  -1.2860  -1.2715  -1.2572  -1.2405
    -1.2003  -1.1516  -1.0369  -0.9571  -0.8644  -0.8378  -0.8241  -0.8107
    -0.8059  -0.8012  -0.7954  -0.7913  -0.7807  -0.7734  -0.7658  -0.7524
    -0.7481  -0.7282  -0.6904  -0.6820  -0.6748  -0.6608  -0.6450  -0.6193
    -0.6113  -0.5275  -0.4821  -0.4159  -0.3240  -0.3163  -0.2565  -0.2503
    -0.2383  -0.2224  -0.2116  -0.1952  -0.1874  -0.1694  -0.1461  -0.1143
    -0.0852  -0.0841  -0.0755  -0.0686  -0.0643  -0.0490  -0.0404  -0.0319
    -0.0289  -0.0187  -0.0138  -0.0044   0.0003   0.0063   0.0090   0.0178
     0.0256   0.0352   0.0806   0.5190   0.6946   0.7110   0.7448   0.7601
     0.7610   0.7981   0.8045   0.9462   1.0564   1.1823   1.2351   1.2451
     1.2648   1.2774   1.2902   1.3351   1.3959   1.4370   1.4965   1.5396
     1.5657   1.5998   1.6389   1.6700   1.7428   1.7669   1.7705   1.7954
     1.7966   1.8111   1.8235   1.8385   1.8497   1.8613   1.8794   1.8898
     1.8968   1.9221   1.9256   1.9494   2.0042   2.0252   2.0787   2.1177
     2.1235   2.1304   2.1445   2.1605   2.1733   2.1953   2.2077   2.2149
     2.2272   2.2298   2.2385   2.2503   2.2620   2.2680   2.2833   2.3354
     2.4120   2.4610   2.5382   2.5700   2.6405   2.7075   2.7235   2.7360
     2.7397   2.7471   2.7563   2.7625   2.7724   2.7760   2.7797   2.7963
     2.7999   2.8115   2.8232   2.8310   2.8407   2.8460   2.8532   2.8618
     2.8714   2.8780   2.8825   2.8865   2.8897   2.8925   2.8937   2.9083
     2.9165   2.9178   2.9227   2.9293   2.9414   2.9517   2.9570   2.9787
     2.9959   3.0223   3.0557   3.0597   3.0848   3.0874   3.1063   3.1143
     3.1244   3.1289   3.1373   3.1509   3.1575   3.1724   3.1794   3.1995
     3.2145   3.2217   3.2265   3.2300   3.2350   3.2453   3.2581   3.2653
     3.2880   3.2950   3.2996   3.3059   3.3167   3.3403   3.3877   3.3979
     3.4032   3.4464   3.4557   3.4623   3.4937   3.5021   3.5682   3.5859
     3.5932   3.6014   3.6102   3.6280   3.6325   3.6571   3.7269   3.7480
     3.7629   3.7734   3.7826   3.7898   3.7928   3.8047   3.8109   3.8197
     3.8360   3.8433   3.8496   3.8666   3.8688   3.8723   3.8831   3.8876
     3.9033   3.9088   3.9255   3.9405   3.9435   3.9504   3.9536   3.9598
     3.9797   4.0112   4.0249   4.0373   4.0892   4.1105   4.1159   4.1373
     4.1429   4.1738   4.2054   4.2170   4.2364   4.2490   4.2576   4.2673
     4.2748   4.2782   4.2917   4.2962   4.3064   4.3137   4.3166   4.3318
     4.3327   4.3348   4.3419   4.3457   4.3516   4.3558   4.3675   4.3726
     4.3742   4.3910   4.4046   4.4090   4.4225   4.4296   4.4334   4.4429
     4.4683   4.4707   4.4918   4.5242   4.5586   4.5994   4.6186   4.6413
     4.6790   4.6869   4.6978   4.7086   4.7277   4.7306   4.7462   4.7645
     4.7709   4.8133   5.1104   5.1141   5.1261   5.1367   5.1456   5.1525
     5.1772   5.1854   5.2077   5.2404   5.2658   5.2827   5.2998   5.3070
     5.3472   5.3703   5.3853   5.4120   5.4260   5.4313   5.6348   5.7015
     5.8498   6.5098   6.5805   7.0593   7.0866   7.1067   7.1365   7.2057
     7.2325   7.2657   7.2722   7.2898   7.2986   7.3141   7.3396   7.3683
     7.3801   7.3962   7.4080   7.4258   7.4272   7.4356   7.4432   7.4512
     7.4785   7.4919   7.5144   7.5507   7.6098   7.6674   7.7078   7.7428
     7.7632   7.7695   7.7770   7.8032   7.8318   7.8347   7.8447   7.8638
     7.8901   7.9056   7.9086   7.9452   7.9567   7.9791   7.9958   7.9998
     8.0339   8.0486   8.0647   8.0972   8.1024   8.1166   8.1339   8.1468
     8.1606   8.1792   8.1848   8.1920   8.2060   8.2132   8.2194   8.2228
     8.2429   8.2453   8.2542   8.2630   8.2680   8.2715   8.2856   8.2915
     8.3036   8.3080   8.3146   8.3250   8.3284   8.3410   8.3448   8.3509
     8.3607   8.3733   8.3857   8.3915   8.3989   8.4092   8.4134   8.4276

     occupation numbers 
     1.0000   1.0000   1.0000   1.0000   1.0000   1.0000   1.0000   1.0000
     1.0000   1.0000   1.0000   1.0000   1.0000   1.0000   1.0000   1.0000
     1.0000   1.0000   1.0000   1.0000   1.0000   1.0000   1.0000   1.0000
     1.0000   1.0000   1.0000   1.0000   1.0000   1.0000   1.0000   1.0000
     1.0000   1.0000   1.0000   1.0000   1.0000   1.0000   1.0000   1.0000
     1.0000   1.0000   1.0000   1.0000   1.0000   1.0000   1.0000   1.0000
     1.0000   1.0000   1.0000   1.0000   1.0000   1.0000   1.0000   1.0000
     1.0000   1.0000   1.0000   1.0000   1.0000   1.0000   1.0000   1.0000
     1.0000   1.0000   1.0000   1.0000   1.0000   1.0000   1.0000   1.0000
     1.0000   1.0000   1.0000   1.0000   1.0000   1.0000   1.0000   1.0000
     1.0000   1.0000   1.0000   1.0000   1.0000   1.0000   1.0000   1.0000
     1.0000   1.0000   1.0000   1.0000   1.0000   1.0000   1.0000   1.0000
     1.0000   1.0000   1.0000   1.0000   1.0000   1.0000   1.0000   1.0000
     1.0000   1.0000   1.0000   1.0000   1.0000   1.0000   1.0000   1.0000
     1.0000   1.0000   1.0000   1.0000   1.0000   1.0000   1.0000   1.0000
     1.0000   1.0000   1.0000   1.0000   1.0000   1.0000   1.0000   1.0000
     1.0000   1.0000   1.0000   1.0000   1.0000   1.0000   1.0000   1.0000
     1.0000   1.0000   1.0000   1.0000   1.0000   1.0000   1.0000   1.0000
     1.0000   1.0000   1.0000   1.0000   1.0000   1.0000   1.0000   1.0000
     1.0000   1.0000   1.0000   1.0000   1.0000   1.0000   1.0000   1.0000
     1.0000   1.0000   1.0000   1.0000   1.0000   1.0000   1.0000   1.0000
     1.0000   1.0000   1.0000   1.0000   1.0000   1.0000   1.0000   1.0000
     1.0000   1.0000   1.0000   1.0000   1.0000   1.0000   1.0000   1.0000
     1.0000   1.0000   1.0000   1.0000   1.0000   1.0000   1.0000   1.0000
     1.0000   1.0000   1.0000   1.0000   1.0000   1.0000   1.0000   1.0000
     1.0000   1.0000   1.0000   1.0000   1.0000   1.0000   1.0000   1.0000
     1.0000   1.0000   1.0000   1.0000   1.0000   1.0000   1.0000   1.0000
     1.0000   1.0000   1.0000   1.0000   1.0000   1.0000   1.0000   1.0000
     1.0000   1.0000   1.0000   1.0000   1.0000   1.0000   1.0000   1.0000
     1.0000   1.0000   1.0000   1.0000   1.0000   1.0000   1.0000   1.0000
     1.0000   1.0000   1.0000   1.0000   1.0000   1.0000   1.0000   1.0000
     1.0000   1.0000   1.0000   1.0000   1.0000   1.0000   1.0000   1.0000
     1.0000   1.0000   1.0000   1.0000   1.0000   1.0000   1.0000   1.0000
     1.0000   1.0000   1.0000   1.0000   1.0000   1.0000   1.0000   1.0000
     1.0000   1.0000   1.0000   1.0000   1.0000   1.0000   1.0000   1.0000
     1.0000   1.0000   1.0000   1.0000   1.0000   1.0000   1.0000   1.0000
     1.0000   1.0000   1.0000   1.0000   1.0000   1.0000   1.0000   1.0000
     1.0000   1.0000   1.0000   1.0000   1.0000   1.0000   1.0000   1.0000
     1.0000   1.0000   1.0001   1.0001   1.0001   1.0001   1.0001   1.0001
     1.0001   1.0002   1.0002   1.0002   1.0002   1.0003   1.0004   1.0005
     1.0005   1.0005   1.0006   1.0007   1.0007   1.0008   1.0013   1.0015
     1.0016   1.0018   1.0019   1.0019   1.0020   1.0021   1.0022   1.0023
     1.0026   1.0027   1.0028   1.0031   1.0032   1.0032   1.0034   1.0035
     1.0039   1.0040   1.0044   1.0048   1.0049   1.0051   1.0051   1.0053
     1.0059   1.0070   1.0076   1.0081   1.0105   1.0116   1.0119   1.0132
     1.0135   1.0156   1.0179   1.0188   1.0204   1.0215   1.0223   1.0232
     1.0239   1.0242   1.0255   1.0260   1.0270   1.0278   1.0281   1.0297
     1.0298   1.0300   1.0308   1.0312   1.0319   1.0324   1.0337   1.0343
     1.0345   1.0366   1.0382   1.0388   1.0405   1.0414   1.0419   1.0431
     1.0465   1.0469   1.0497   1.0542   1.0590   1.0645   1.0670   1.0698
     1.0742   1.0750   1.0762   1.0772   1.0789   1.0791   1.0803   1.0815
     1.0818   1.0832   1.0259   1.0243   1.0186   1.0134   1.0089   1.0052
     0.9915   0.9866   0.9728   0.9508   0.9322   0.9191   0.9055   0.8995
     0.8649   0.8439   0.8297   0.8039   0.7900   0.7847   0.5649   0.4920
     0.3414   0.0238   0.0161   0.0007   0.0005   0.0005   0.0004   0.0002
     0.0002   0.0001   0.0001   0.0001   0.0001   0.0001   0.0001   0.0001
     0.0000   0.0000   0.0000   0.0000   0.0000   0.0000   0.0000   0.0000
     0.0000   0.0000   0.0000   0.0000   0.0000   0.0000   0.0000   0.0000
     0.0000   0.0000   0.0000   0.0000   0.0000   0.0000   0.0000   0.0000
     0.0000   0.0000   0.0000   0.0000   0.0000   0.0000   0.0000   0.0000
     0.0000   0.0000   0.0000   0.0000   0.0000   0.0000   0.0000   0.0000
     0.0000   0.0000   0.0000   0.0000   0.0000   0.0000   0.0000   0.0000
     0.0000   0.0000   0.0000   0.0000   0.0000   0.0000   0.0000   0.0000
     0.0000   0.0000   0.0000   0.0000   0.0000   0.0000   0.0000   0.0000
     0.0000   0.0000   0.0000   0.0000   0.0000   0.0000   0.0000   0.0000

          k = 0.0000-0.4976-0.4850 (137426 PWs)   bands (ev):

    -5.6846  -5.6537  -5.6278  -5.6218  -5.2849  -5.2116  -5.1797  -5.1772
    -5.1561  -5.1494  -5.1382  -5.1229  -4.8009  -4.7665  -4.7235  -4.7145
    -4.7099  -4.6915  -4.6876  -4.6496  -4.4207  -4.4068  -4.3738  -4.3454
    -4.3389  -4.3229  -4.3031  -4.2894  -4.2799  -4.2749  -4.2616  -4.2569
    -4.2461  -4.2358  -4.2253  -4.1644  -3.9638  -3.9311  -3.9007  -3.8457
    -3.8393  -3.8313  -3.8241  -3.8143  -3.7993  -3.7897  -3.7802  -3.7666
    -3.7574  -3.7234  -3.6789  -3.6710  -3.6452  -3.6234  -3.5863  -3.5492
    -3.3483  -3.3252  -3.3132  -3.2937  -3.2744  -3.2588  -3.2214  -3.2118
    -3.1963  -3.1850  -3.1653  -3.1572  -3.1463  -3.1264  -3.1115  -3.1032
    -2.9988  -2.9586  -2.9517  -2.9417  -2.9268  -2.9195  -2.9007  -2.8670
    -2.8599  -2.8335  -2.8273  -2.8015  -2.7986  -2.7831  -2.7507  -2.7490
    -2.7219  -2.7029  -2.6954  -2.6911  -2.6855  -2.6674  -2.6623  -2.5676
    -2.5085  -2.4916  -2.4838  -2.4488  -2.3764  -2.3744  -2.3639  -2.1891
    -1.9942  -1.9600  -1.8800  -1.8344  -1.5729  -1.5329  -1.4824  -1.4391
    -1.1252  -1.0126  -0.9738  -0.9455  -0.9236  -0.9118  -0.8882  -0.8802
    -0.8710  -0.8495  -0.8451  -0.7985  -0.7850  -0.7766  -0.7668  -0.7579
    -0.7476  -0.7374  -0.7277  -0.7237  -0.7200  -0.7140  -0.7099  -0.7039
    -0.6971  -0.6806  -0.6537  -0.6499  -0.6354  -0.6235  -0.6046  -0.6001
    -0.5899  -0.5812  -0.5749  -0.5688  -0.5665  -0.5634  -0.5572  -0.5528
    -0.5429  -0.5395  -0.5365  -0.5281  -0.5239  -0.5216  -0.5146  -0.5127
    -0.5106  -0.5086  -0.5039  -0.4925  -0.4905  -0.4527  -0.3817   0.0951
     0.3626   0.4178   0.4640   0.4860   0.5027   0.5055   0.5145   0.5266
     0.5362   0.5479   0.5702   0.5813   0.5850   0.5997   0.6287   0.6446
     0.6616   0.7035   0.7146   0.7311   0.7441   0.7568   0.7637   0.7854
     0.7930   0.8084   0.8246   1.2510   1.4211   1.6236   1.6575   1.8502
     1.8551   1.8607   1.8642   1.8765   1.9099   1.9109   1.9334   1.9856
     1.9972   2.0129   2.0236   2.0302   2.0410   2.0492   2.0539   2.0547
     2.0608   2.0657   2.0714   2.0756   2.0828   2.0903   2.0944   2.1022
     2.1088   2.1129   2.1225   2.1335   2.1422   2.1741   2.1912   2.2361
     2.2567   2.2867   2.2914   2.3119   2.3221   2.3323   2.3402   2.3440
     2.3550   2.3680   2.3870   2.3909   2.3946   2.4045   2.4110   2.4407
     2.4613   2.4701   2.4830   2.4954   2.4971   2.5190   2.5527   2.5555
     2.6034   2.6135   2.6657   2.7041   2.7751   2.8019   2.8088   2.8334
     2.8372   2.8422   2.8557   2.8654   2.8989   2.9066   2.9238   2.9332
     2.9500   2.9552   2.9621   2.9819   2.9879   2.9971   3.0108   3.0140
[...]
     atom   28 type  1   force =     0.00000303    0.00000185   -0.00000036
     atom   29 type  1   force =     0.00000415    0.00000314    0.00000035
     atom   30 type  1   force =     0.00000108    0.00000056   -0.00000043
     atom   31 type  1   force =     0.00000214    0.00000200    0.00000298
     atom   32 type  1   force =     0.00000451   -0.00000280    0.00000162
     atom   33 type  1   force =     0.00000078    0.00000464    0.00000547
     atom   34 type  1   force =     0.00000165   -0.00000077    0.00000362
     atom   35 type  1   force =    -0.00000085    0.00000199    0.00000223
     atom   36 type  1   force =     0.00000039   -0.00000027    0.00000146
     atom   37 type  1   force =    -0.00000040   -0.00000082    0.00000701
     atom   38 type  1   force =    -0.00000183   -0.00000474    0.00000395
     atom   39 type  1   force =     0.00000220    0.00000108    0.00000331
     atom   40 type  1   force =     0.00000145   -0.00000129    0.00000247
     atom   41 type  1   force =     0.00000751   -0.00000086   -0.00000317
     atom   42 type  1   force =     0.00000671   -0.00000249   -0.00000534
     atom   43 type  1   force =     0.00000009   -0.00000059    0.00000047
     atom   44 type  1   force =     0.00000130    0.00000065   -0.00000222
     atom   45 type  1   force =     0.00000830   -0.00000573   -0.00000573
     atom   46 type  1   force =     0.00000688   -0.00000589   -0.00000457
     atom   47 type  1   force =     0.00000334    0.00000507   -0.00000514
     atom   48 type  1   force =     0.00000268    0.00000445   -0.00000397
     atom   49 type  1   force =     0.00000309    0.00000172   -0.00000526
     atom   50 type  1   force =     0.00000696   -0.00000047   -0.00000630
     atom   51 type  1   force =     0.00000683    0.00000353   -0.00000749
     atom   52 type  1   force =     0.00000844   -0.00000094   -0.00000994
     atom   53 type  1   force =     0.00000525   -0.00000035   -0.00000040
     atom   54 type  1   force =     0.00000682   -0.00000288   -0.00000184
     atom   55 type  1   force =     0.00000730   -0.00000385   -0.00000708
     atom   56 type  1   force =     0.00000964   -0.00000366   -0.00000393
     atom   57 type  1   force =     0.00000479   -0.00000684    0.00000222
     atom   58 type  1   force =     0.00000778   -0.00000698    0.00000807
     atom   59 type  1   force =     0.00000965   -0.00000407    0.00000268
     atom   60 type  1   force =     0.00000750   -0.00000246    0.00000868
     atom   61 type  1   force =     0.00000087    0.00000070    0.00000423
     atom   62 type  1   force =     0.00000330    0.00000307    0.00000581
     atom   63 type  1   force =     0.00000546   -0.00000348    0.00001579
     atom   64 type  1   force =     0.00000748    0.00000086    0.00001426
     atom   65 type  1   force =     0.00000056    0.00000481    0.00000368
     atom   66 type  1   force =     0.00000344    0.00000423   -0.00000058
     atom   67 type  1   force =     0.00000269    0.00000698    0.00000858
     atom   68 type  1   force =     0.00000332    0.00000405    0.00000106
     atom   69 type  1   force =     0.00000044    0.00000913   -0.00000375
     atom   70 type  1   force =     0.00000284    0.00000627   -0.00000515
     atom   71 type  1   force =     0.00000491    0.00000198   -0.00000645
     atom   72 type  1   force =     0.00000873    0.00000019   -0.00000939
     atom   73 type  1   force =     0.00000394    0.00000166   -0.00000947
     atom   74 type  1   force =     0.00000281   -0.00000207   -0.00000965
     atom   75 type  1   force =    -0.00000752   -0.00000187   -0.00000491
     atom   76 type  1   force =    -0.00000676   -0.00000365   -0.00000287
     atom   77 type  1   force =    -0.00000369    0.00000023   -0.00000693
     atom   78 type  1   force =    -0.00000503    0.00000015   -0.00000375
     atom   79 type  1   force =     0.00000639   -0.00000050   -0.00000812
     atom   80 type  1   force =     0.00000388   -0.00000222   -0.00000538
     atom   81 type  1   force =     0.00000554   -0.00000165    0.00000153
     atom   82 type  1   force =     0.00000171   -0.00000326    0.00000562
     atom   83 type  1   force =     0.00000056   -0.00000055   -0.00000185
     atom   84 type  1   force =    -0.00000070   -0.00000288   -0.00000043
     atom   85 type  1   force =    -0.00000471   -0.00000122    0.00000750
     atom   86 type  1   force =    -0.00000700   -0.00000446    0.00000485
     atom   87 type  1   force =    -0.00000165   -0.00000175    0.00001170
     atom   88 type  1   force =    -0.00000435   -0.00000648    0.00000867
     atom   89 type  1   force =    -0.00000320    0.00000257    0.00000869
     atom   90 type  1   force =    -0.00000595   -0.00000265    0.00000347
     atom   91 type  1   force =    -0.00001015   -0.00000399    0.00000659
     atom   92 type  1   force =    -0.00001081   -0.00000455    0.00000260
     atom   93 type  1   force =    -0.00001053    0.00000188    0.00000020
     atom   94 type  1   force =    -0.00001371   -0.00000255   -0.00000203
     atom   95 type  1   force =     0.00000028   -0.00000380   -0.00000254
     atom   96 type  1   force =    -0.00000136   -0.00000750   -0.00000383
     atom   97 type  1   force =     0.00000485   -0.00000548   -0.00000599
     atom   98 type  1   force =     0.00000156   -0.00000526   -0.00000410
     atom   99 type  1   force =    -0.00000293   -0.00000068   -0.00000126
     atom  100 type  1   force =    -0.00000461   -0.00000104   -0.00000142
     atom  101 type  1   force =    -0.00000081   -0.00000298   -0.00000426
     atom  102 type  1   force =    -0.00000036   -0.00000244   -0.00000281
     atom  103 type  1   force =     0.00000071    0.00000223   -0.00000160
     atom  104 type  1   force =     0.00000075    0.00000285   -0.00000127
     atom  105 type  1   force =    -0.00000017    0.00000059    0.00000087
     atom  106 type  1   force =    -0.00000051   -0.00000009    0.00000109
     atom  107 type  1   force =    -0.00000135    0.00000276   -0.00000112
     atom  108 type  1   force =    -0.00000116    0.00000217   -0.00000017
     atom  109 type  1   force =    -0.00000274   -0.00000154    0.00000368
     atom  110 type  1   force =    -0.00000197   -0.00000093    0.00000232
     atom  111 type  1   force =    -0.00000263    0.00000130    0.00000228
     atom  112 type  1   force =    -0.00000056    0.00000270    0.00000235
     atom  113 type  1   force =    -0.00000311   -0.00000727    0.00000585
     atom  114 type  1   force =    -0.00000208   -0.00000680    0.00000295
     atom  115 type  1   force =    -0.00000274    0.00000077    0.00000285
     atom  116 type  1   force =    -0.00000177    0.00000273   -0.00000080
     atom  117 type  1   force =    -0.00000818   -0.00000618    0.00000141
     atom  118 type  1   force =    -0.00000672   -0.00000489   -0.00000047
     atom  119 type  1   force =     0.00000041   -0.00000287   -0.00000148
     atom  120 type  1   force =     0.00000071   -0.00000008   -0.00000140
     atom  121 type  1   force =     0.00000021    0.00000636   -0.00000110
     atom  122 type  1   force =     0.00000132    0.00000370   -0.00000216
     atom  123 type  1   force =    -0.00000613    0.00000714   -0.00000321
     atom  124 type  1   force =    -0.00001005    0.00000097   -0.00000509
     atom  125 type  1   force =    -0.00000497    0.00000408   -0.00000103
     atom  126 type  1   force =    -0.00000829   -0.00000072   -0.00000098
     atom  127 type  1   force =     0.00000478    0.00000111   -0.00000377
     atom  128 type  1   force =     0.00000347   -0.00000267   -0.00000455
     atom  129 type  1   force =     0.00000129    0.00000251   -0.00000074
     atom  130 type  1   force =     0.00000117    0.00000068    0.00000173
     atom  131 type  1   force =    -0.00000328    0.00000077   -0.00000073
     atom  132 type  1   force =    -0.00000659   -0.00000144    0.00000338
     atom  133 type  1   force =    -0.00000191    0.00000530    0.00000237
     atom  134 type  1   force =    -0.00000282    0.00000270    0.00000375
     atom  135 type  1   force =     0.00000167    0.00000325    0.00000771
     atom  136 type  1   force =    -0.00000132    0.00000123    0.00000774
     atom  137 type  1   force =    -0.00000119    0.00000663    0.00000194
     atom  138 type  1   force =    -0.00000046    0.00000683   -0.00000125
     atom  139 type  1   force =    -0.00000434    0.00000535    0.00000318
     atom  140 type  1   force =    -0.00000725   -0.00000050   -0.00000032
     atom  141 type  1   force =    -0.00000200    0.00000657   -0.00000111
     atom  142 type  1   force =    -0.00000546    0.00000365   -0.00000385
     atom  143 type  1   force =    -0.00000255    0.00001035   -0.00000278
     atom  144 type  1   force =    -0.00000167    0.00000491   -0.00000399
     atom  145 type  1   force =    -0.00001371    0.00000006   -0.00000335
     atom  146 type  1   force =    -0.00000974   -0.00000031   -0.00000148
     atom  147 type  1   force =    -0.00000595    0.00000097   -0.00000198
     atom  148 type  1   force =    -0.00000054    0.00000059    0.00000082
     atom  149 type  1   force =    -0.00000827    0.00000457   -0.00000440
     atom  150 type  1   force =    -0.00000243    0.00000504   -0.00000026
     atom  151 type  1   force =    -0.00001020    0.00000330   -0.00000161
     atom  152 type  1   force =    -0.00000530    0.00000123    0.00000060
     atom  153 type  1   force =    -0.00001062    0.00000270   -0.00000024
     atom  154 type  1   force =    -0.00000675    0.00000323    0.00000369
     atom  155 type  1   force =    -0.00000523    0.00000840    0.00000240
     atom  156 type  1   force =     0.00000185    0.00000374    0.00000358
     atom  157 type  1   force =    -0.00000505    0.00000264    0.00001188
     atom  158 type  1   force =     0.00000593   -0.00000014    0.00000670
     atom  159 type  1   force =    -0.00000507   -0.00000008    0.00000171
     atom  160 type  1   force =    -0.00000067   -0.00000097   -0.00000043
     atom  161 type  1   force =    -0.00000766   -0.00000384    0.00000272
     atom  162 type  1   force =    -0.00000384   -0.00000742   -0.00000092
     atom  163 type  1   force =     0.00000192   -0.00000115   -0.00000228
     atom  164 type  1   force =     0.00000782   -0.00000329   -0.00000612
     atom  165 type  1   force =    -0.00000153   -0.00000381   -0.00000608
     atom  166 type  1   force =     0.00000326   -0.00000398   -0.00000875
     atom  167 type  1   force =    -0.00001391   -0.00000266   -0.00000002
     atom  168 type  1   force =    -0.00000913   -0.00000283    0.00000031
     atom  169 type  1   force =    -0.00001154   -0.00000150    0.00000079
     atom  170 type  1   force =    -0.00000643   -0.00000087    0.00000224
     atom  171 type  1   force =    -0.00000219    0.00000437   -0.00000063
     atom  172 type  1   force =     0.00000223    0.00000042   -0.00000159
     atom  173 type  1   force =    -0.00000562    0.00000273    0.00000441
     atom  174 type  1   force =     0.00000071    0.00000031    0.00000402
     atom  175 type  1   force =    -0.00000468   -0.00000115    0.00000088
     atom  176 type  1   force =    -0.00000406   -0.00000566    0.00000076
     atom  177 type  1   force =    -0.00000212    0.00000008   -0.00000157
     atom  178 type  1   force =     0.00000109   -0.00000126   -0.00000002
     atom  179 type  1   force =    -0.00000127   -0.00000156    0.00000200
     atom  180 type  1   force =     0.00000314   -0.00000576    0.00000492
     atom  181 type  1   force =     0.00000109    0.00000194    0.00000053
     atom  182 type  1   force =     0.00000505   -0.00000013   -0.00000044
     atom  183 type  1   force =    -0.00000090    0.00000232    0.00000178
     atom  184 type  1   force =     0.00000059    0.00000231    0.00000248
     atom  185 type  1   force =    -0.00000576   -0.00000059    0.00000018
     atom  186 type  1   force =    -0.00000251    0.00000176   -0.00000245
     atom  187 type  1   force =     0.00000145    0.00000574   -0.00000180
     atom  188 type  1   force =     0.00000287    0.00000552   -0.00000374
     atom  189 type  1   force =    -0.00000175    0.00000287   -0.00000425
     atom  190 type  1   force =     0.00000254    0.00000397   -0.00000362
     atom  191 type  1   force =    -0.00000539    0.00000295   -0.00000118
     atom  192 type  1   force =    -0.00000236    0.00000324   -0.00000366
     atom  193 type  1   force =    -0.00000489    0.00000334   -0.00000356
     atom  194 type  1   force =    -0.00000632   -0.00000316   -0.00000573
     atom  195 type  1   force =    -0.00000255   -0.00000072   -0.00000938
     atom  196 type  1   force =     0.00000175   -0.00000235   -0.00001078
     atom  197 type  1   force =    -0.00000228   -0.00000313   -0.00000320
     atom  198 type  1   force =     0.00000376   -0.00001059   -0.00000227
     atom  199 type  1   force =    -0.00001174    0.00000166   -0.00000434
     atom  200 type  1   force =    -0.00001348    0.00000165   -0.00000343
     atom  201 type  1   force =    -0.00000788   -0.00000154    0.00000215
     atom  202 type  1   force =    -0.00000852   -0.00000598    0.00000957
     atom  203 type  1   force =    -0.00000749   -0.00000445    0.00000118
     atom  204 type  1   force =     0.00000045   -0.00000039    0.00001051
     atom  205 type  1   force =    -0.00000199   -0.00000118    0.00000810
     atom  206 type  1   force =     0.00000240   -0.00000274    0.00000972
     atom  207 type  1   force =    -0.00000676   -0.00000089    0.00000661
     atom  208 type  1   force =    -0.00000414   -0.00000254    0.00000765
     atom  209 type  1   force =    -0.00000157    0.00000507    0.00000142
     atom  210 type  1   force =     0.00000014    0.00000115   -0.00000228
     atom  211 type  1   force =    -0.00000079   -0.00000123    0.00000529
     atom  212 type  1   force =     0.00000668   -0.00000519   -0.00000072
     atom  213 type  1   force =     0.00000011    0.00000522   -0.00000576
     atom  214 type  1   force =     0.00000334    0.00000166   -0.00000811
     atom  215 type  1   force =    -0.00000631    0.00000222   -0.00000414
     atom  216 type  2   force =     0.00000123    0.00000150   -0.00000150
     atom  217 type  2   force =    -0.00000091   -0.00000079   -0.00000227
     atom  218 type  2   force =     0.00000224   -0.00000179   -0.00000278
     atom  219 type  2   force =     0.00000147   -0.00000221   -0.00000183
     atom  220 type  2   force =    -0.00000211   -0.00000114   -0.00000043

     Total force =     0.057451     Total SCF correction =     0.000124


     Computing stress (Cartesian axis) and pressure

          total   stress  (Ry/bohr**3)                   (kbar)     P=   -5.49
  -0.00000574   0.00003028   0.00015109         -0.84      4.45     22.23
   0.00003028  -0.00003855  -0.00009238          4.45     -5.67    -13.59
   0.00015109  -0.00009238  -0.00006771         22.23    -13.59     -9.96

     kinetic stress (kbar)   2214.28      4.18     20.63
                                4.18   2208.32    -13.22
                               20.63    -13.22   2203.98

     local   stress (kbar)  -1176.72    -12.90    -54.40
                              -12.90  -1209.37     29.10
                              -54.40     29.10  -1246.68

     nonloc. stress (kbar)   2508.86      0.20      2.69
                                0.20   2512.22     -1.85
                                2.69     -1.85   2514.44

     hartree stress (kbar)    200.03      4.78     19.66
                                4.78    204.59    -10.73
                               19.66    -10.73    211.98

     exc-cor stress (kbar)   -784.78      0.00     -0.03
                                0.00   -784.69      0.06
                               -0.03      0.06   -784.53

     corecor stress (kbar)      0.00      0.00      0.00
                                0.00      0.00      0.00
                                0.00      0.00      0.00

     ewald   stress (kbar)  -2962.51      8.19     33.67
                                8.19  -2936.74    -16.95
                               33.67    -16.95  -2909.14

     hubbard stress (kbar)      0.00      0.00      0.00
                                0.00      0.00      0.00
                                0.00      0.00      0.00

     london  stress (kbar)      0.00      0.00      0.00
                                0.00      0.00      0.00
                                0.00      0.00      0.00

     DFT-D3  stress (kbar)      0.00      0.00      0.00
                                0.00      0.00      0.00
                                0.00      0.00      0.00

     XDM     stress (kbar)      0.00      0.00      0.00
                                0.00      0.00      0.00
                                0.00      0.00      0.00

     dft-nl  stress (kbar)      0.00      0.00      0.00
                                0.00      0.00      0.00
                                0.00      0.00      0.00

     TS-vdW  stress (kbar)      0.00      0.00      0.00
                                0.00      0.00      0.00
                                0.00      0.00      0.00



     Writing output data file vacancy_optimize5.save

     init_run     :    244.59s CPU    249.59s WALL (       1 calls)
     electrons    :   8843.87s CPU   9041.94s WALL (       1 calls)
     forces       :     87.36s CPU     88.44s WALL (       1 calls)
     stress       :    791.39s CPU    799.29s WALL (       1 calls)

     Called by init_run:
     wfcinit      :    231.38s CPU    235.21s WALL (       1 calls)
     wfcinit:atom :      0.76s CPU      1.60s WALL (       8 calls)
     wfcinit:wfcr :    219.70s CPU    221.73s WALL (       8 calls)
     potinit      :      5.43s CPU      6.53s WALL (       1 calls)

     Called by electrons:
     c_bands      :   8206.05s CPU   8397.52s WALL (      20 calls)
     sum_band     :    631.66s CPU    637.53s WALL (      20 calls)
     v_of_rho     :      5.18s CPU      5.22s WALL (      20 calls)
     v_h          :      0.31s CPU      0.31s WALL (      20 calls)
     v_xc         :      4.87s CPU      4.91s WALL (      20 calls)
     mix_rho      :      0.98s CPU      1.18s WALL (      20 calls)

     Called by c_bands:
     init_us_2    :     29.29s CPU     31.28s WALL (     344 calls)
     cegterg      :   8141.37s CPU   8291.84s WALL (     160 calls)

     Called by sum_band:

     Called by *egterg:
     h_psi        :   4509.84s CPU   4529.90s WALL (     846 calls)
     g_psi        :     12.58s CPU     12.60s WALL (     678 calls)
     cdiaghg      :   1282.58s CPU   1284.17s WALL (     830 calls)
     cegterg:over :   1036.89s CPU   1040.36s WALL (     678 calls)
     cegterg:upda :    648.29s CPU    654.15s WALL (     678 calls)
     cegterg:last :    389.95s CPU    393.23s WALL (     160 calls)

     Called by h_psi:
     h_psi:pot    :   4488.23s CPU   4505.68s WALL (     846 calls)
     h_psi:calbec :    882.16s CPU    888.31s WALL (     846 calls)
     vloc_psi     :   2743.70s CPU   2752.78s WALL (     846 calls)
     add_vuspsi   :    862.36s CPU    864.58s WALL (     846 calls)

     General routines
     calbec       :    971.43s CPU    978.27s WALL (     886 calls)
     fft          :      2.84s CPU      2.87s WALL (     229 calls)
     fftw         :   2993.63s CPU   3003.03s WALL (  482654 calls)

     Parallel routines
     fft_scatt_xy :    419.99s CPU    421.21s WALL (  482883 calls)
     fft_scatt_yz :    580.44s CPU    582.97s WALL (  482883 calls)

     PWSCF        :     2h46m CPU        2h49m WALL


   This run was terminated on:  11:46:26   7Nov2020            

=------------------------------------------------------------------------------=
   JOB DONE.
=------------------------------------------------------------------------------=
