
     Program PWSCF v.6.2 (svn rev. 14038) starts on  7Nov2020 at  8:47:15 

     This program is part of the open-source Quantum ESPRESSO suite
     for quantum simulation of materials; please cite
         "P. Giannozzi et al., J. Phys.:Condens. Matter 21 395502 (2009);
         "P. Giannozzi et al., J. Phys.:Condens. Matter 29 465901 (2017);
          URL http://www.quantum-espresso.org", 
     in publications or presentations arising from this work. More details at
     http://www.quantum-espresso.org/quote

     Parallel version (MPI), running on     8 processors

     MPI processes distributed on     1 nodes
     R & G space division:  proc/nbgrp/npool/nimage =       8
     Waiting for input...
     Reading input from standard input
Warning: card &IONS ignored
Warning: card / ignored

     Current dimensions of program PWSCF are:
     Max number of different atomic species (ntypx) = 10
     Max number of k-points (npk) =  40000
     Max angular momentum in pseudopotentials (lmaxx) =  3

     Subspace diagonalization in iterative solution of the eigenvalue problem:
     a serial algorithm will be used


     Parallelization info
     --------------------
     sticks:   dense  smooth     PW     G-vecs:    dense   smooth      PW
     Min        1568    1568    415               141793   141793   19174
     Max        1569    1569    416               141795   141795   19175
     Sum       12545   12545   3321              1134353  1134353  153397



     bravais-lattice index     =            0
     lattice parameter (alat)  =      30.8222  a.u.
     unit-cell volume          =   30850.1918 (a.u.)^3
     number of atoms/cell      =          219
     number of atomic types    =            2
     number of electrons       =       864.00
     number of Kohn-Sham states=          518
     kinetic-energy cutoff     =      42.0000  Ry
     charge density cutoff     =     168.0000  Ry
     convergence threshold     =      1.0E-08
     mixing beta               =       0.3000
     number of iterations used =            8  plain     mixing
     Exchange-correlation      = SLA-PW-PBX-PBC ( 1  4  3  4 0 0)

     celldm(1)=  30.822183  celldm(2)=   0.000000  celldm(3)=   0.000000
     celldm(4)=   0.000000  celldm(5)=   0.000000  celldm(6)=   0.000000

     crystal axes: (cart. coord. in units of alat)
               a(1) = (   1.000000   0.000000   0.000000 )  
               a(2) = (  -0.032753   0.989500   0.000000 )  
               a(3) = (   0.031234   0.049703   1.064760 )  

     reciprocal axes: (cart. coord. in units 2 pi/alat)
               b(1) = (  1.000000  0.033100 -0.030879 )  
               b(2) = (  0.000000  1.010611 -0.047176 )  
               b(3) = (  0.000000 -0.000000  0.939178 )  


     PseudoPot. # 1 for Si read from file:
     ./Si.pbe-hgh.UPF
     MD5 check sum: 9a9f0f6e09139bfdb36b03ff6bc35900
     Pseudo is Norm-conserving, Zval =  4.0
     Generated in analytical, separable form
     Using radial grid of 1141 points,  3 beta functions with: 
                l(1) =   0
                l(2) =   0
                l(3) =   1

     PseudoPot. # 2 for H  read from file:
     ./H.pbe-hgh.UPF
     MD5 check sum: 5f350582108a937bec95f27f5610ab08
     Pseudo is Norm-conserving, Zval =  1.0
     Generated in analytical, separable form
     Using radial grid of  929 points,  0 beta functions with: 

     atomic species   valence    mass     pseudopotential
        Si             4.00    28.08000     Si( 1.00)
        H              1.00     1.00784     H ( 1.00)

     No symmetry found


                                    s                        frac. trans.

      isym =  1     identity                                     

 cryst.   s( 1) = (     1          0          0      )
                  (     0          1          0      )
                  (     0          0          1      )

 cart.    s( 1) = (  1.0000000  0.0000000  0.0000000 )
                  (  0.0000000  1.0000000  0.0000000 )
                  (  0.0000000  0.0000000  1.0000000 )


   Cartesian axes

     site n.     atom                  positions (alat units)
         1           Si  tau(   1) = (   0.7456933   0.9516497   0.9749063  )
         2           Si  tau(   2) = (   0.0873026   0.0896683   0.1008207  )
         3           Si  tau(   3) = (   0.1610877   0.1639334   0.0001261  )
         4           Si  tau(   4) = (   0.2432646   0.2496476   0.0899973  )
         5           Si  tau(   5) = (   0.1759545   0.0087172   0.1811605  )
         6           Si  tau(   6) = (   0.2561019   0.0950506   0.2694408  )
         7           Si  tau(   7) = (   0.0007720   0.1762597   0.1801990  )
         8           Si  tau(   8) = (   0.0833397   0.2596265   0.2687711  )
         9           Si  tau(   9) = (   0.0121956   0.0174392   0.3554181  )
        10           Si  tau(  10) = (   0.0933914   0.1023010   0.4453882  )
        11           Si  tau(  11) = (   0.1736093   0.1823344   0.3556321  )
        12           Si  tau(  12) = (   0.2547541   0.2674084   0.4453967  )
        13           Si  tau(  13) = (   0.1840845   0.0249391   0.5317850  )
        14           Si  tau(  14) = (   0.2652354   0.1098720   0.6220149  )
        15           Si  tau(  15) = (   0.0116090   0.1902605   0.5318499  )
        16           Si  tau(  16) = (   0.0929032   0.2752142   0.6219638  )
        17           Si  tau(  17) = (   0.0221925   0.0333587   0.7079165  )
        18           Si  tau(  18) = (   0.1019903   0.1192390   0.7982551  )
        19           Si  tau(  19) = (   0.1835760   0.1981335   0.7087109  )
        20           Si  tau(  20) = (   0.2642447   0.2828219   0.7999661  )
        21           Si  tau(  21) = (   0.1960871   0.0448108   0.8831026  )
        22           Si  tau(  22) = (   0.2749331   0.1274542   0.9779089  )
        23           Si  tau(  23) = (   0.0212628   0.2055705   0.8869773  )
        24           Si  tau(  24) = (   0.1018865   0.2906116   0.9778823  )
        25           Si  tau(  25) = (   0.0218546   0.3793783   1.0642109  )
        26           Si  tau(  26) = (   0.0717938   0.4147838   0.0896472  )
        27           Si  tau(  27) = (   0.1830675   0.5442337   1.0640150  )
        28           Si  tau(  28) = (   0.2331182   0.5795821   0.0898185  )
        29           Si  tau(  29) = (   0.1625272   0.3381302   0.1768333  )
        30           Si  tau(  30) = (   0.2438446   0.4233851   0.2672942  )
        31           Si  tau(  31) = (  -0.0095387   0.5030299   0.1765671  )
        32           Si  tau(  32) = (   0.0715340   0.5880482   0.2673443  )
        33           Si  tau(  33) = (   0.0009430   0.3469519   0.3546642  )
        34           Si  tau(  34) = (   0.0822747   0.4316124   0.4446013  )
        35           Si  tau(  35) = (   0.1623600   0.5113628   0.3542926  )
        36           Si  tau(  36) = (   0.2436403   0.5964785   0.4445694  )
        37           Si  tau(  37) = (   0.1729746   0.3552256   0.5319692  )
        38           Si  tau(  38) = (   0.2541511   0.4400056   0.6224738  )
        39           Si  tau(  39) = (   0.0006361   0.5189602   0.5314176  )
        40           Si  tau(  40) = (   0.0824156   0.6033651   0.6211588  )
        41           Si  tau(  41) = (   0.0112697   0.3624979   0.7094434  )
        42           Si  tau(  42) = (   0.0925306   0.4474798   0.7997574  )
        43           Si  tau(  43) = (   0.1726309   0.5275585   0.7096138  )
        44           Si  tau(  44) = (   0.2531106   0.6133691   0.8001951  )
        45           Si  tau(  45) = (   0.1824724   0.3703296   0.8872829  )
        46           Si  tau(  46) = (   0.2641502   0.4557885   0.9771966  )
        47           Si  tau(  47) = (   0.0113364   0.5358005   0.8865162  )
        48           Si  tau(  48) = (   0.0924227   0.6210932   0.9767270  )
        49           Si  tau(  49) = (   0.0107739   0.7091438   1.0639319  )
        50           Si  tau(  50) = (   0.0608285   0.7443737   0.0903761  )
        51           Si  tau(  51) = (   0.1428084   0.8240624   0.0031124  )
        52           Si  tau(  52) = (   0.2228397   0.9116467   0.0913084  )
        53           Si  tau(  53) = (   0.1518010   0.6677375   0.1770217  )
        54           Si  tau(  54) = (   0.2329587   0.7532431   0.2672783  )
        55           Si  tau(  55) = (  -0.0166003   0.8339456   0.1780971  )
        56           Si  tau(  56) = (   0.0618968   0.9187169   0.2701968  )
        57           Si  tau(  57) = (  -0.0096472   0.6759738   0.3546898  )
        58           Si  tau(  58) = (   0.0714328   0.7608923   0.4450890  )
        59           Si  tau(  59) = (   0.1521447   0.8405800   0.3556842  )
        60           Si  tau(  60) = (   0.2331598   0.9263862   0.4452370  )
        61           Si  tau(  61) = (   0.1622889   0.6842180   0.5318084  )
        62           Si  tau(  62) = (   0.2432240   0.7695145   0.6222076  )
        63           Si  tau(  63) = (  -0.0101375   0.8492516   0.5314666  )
        64           Si  tau(  64) = (   0.0709073   0.9345480   0.6216923  )
        65           Si  tau(  65) = (   0.0003299   0.6907330   0.7067112  )
        66           Si  tau(  66) = (   0.0798537   0.7758482   0.7967016  )
        67           Si  tau(  67) = (   0.1614505   0.8578798   0.7089451  )
        68           Si  tau(  68) = (   0.2439122   0.9444180   0.7980709  )
        69           Si  tau(  69) = (   0.1716019   0.7027103   0.8868740  )
        70           Si  tau(  70) = (   0.2543229   0.7858009   0.9794709  )
        71           Si  tau(  71) = (   0.9954415   0.8619869   0.8806792  )
        72           Si  tau(  72) = (   0.1010053   0.9283052   0.9544480  )
        73           Si  tau(  73) = (   0.3658388   0.0501621   1.0640288  )
        74           Si  tau(  74) = (   0.4157196   0.0854704   0.0897610  )
        75           Si  tau(  75) = (   0.5272045   0.2148687   1.0642066  )
        76           Si  tau(  76) = (   0.5768445   0.2504722   0.0900692  )
        77           Si  tau(  77) = (   0.5066925   0.0085928   0.1767183  )
        78           Si  tau(  78) = (   0.5876222   0.0935173   0.2676126  )
        79           Si  tau(  79) = (   0.3345986   0.1735347   0.1769365  )
        80           Si  tau(  80) = (   0.4158829   0.2588373   0.2673177  )
        81           Si  tau(  81) = (   0.3134673   1.0061765   0.3551284  )
        82           Si  tau(  82) = (   0.4266782   0.1020978   0.4450496  )
        83           Si  tau(  83) = (   0.5064676   0.1818089   0.3544001  )
        84           Si  tau(  84) = (   0.5875859   0.2670270   0.4446876  )
        85           Si  tau(  85) = (   0.5173163   0.0250990   0.5315603  )
        86           Si  tau(  86) = (   0.5976973   0.1104020   0.6220298  )
        87           Si  tau(  87) = (   0.3451970   0.1900562   0.5320086  )
        88           Si  tau(  88) = (   0.4260979   0.2750715   0.6224887  )
        89           Si  tau(  89) = (   0.3245025   1.0224782   0.7073363  )
        90           Si  tau(  90) = (   0.4367547   0.1179260   0.7995434  )
        91           Si  tau(  91) = (   0.5166964   0.1982748   0.7095531  )
        92           Si  tau(  92) = (   0.5978466   0.2835277   0.7997809  )
        93           Si  tau(  93) = (   0.4947891   1.0309268   0.8868176  )
        94           Si  tau(  94) = (   0.6087542   0.1267929   0.9771689  )
        95           Si  tau(  95) = (   0.3553300   0.2060064   0.8866493  )
        96           Si  tau(  96) = (   0.4365033   0.2915238   0.9769687  )
        97           Si  tau(  97) = (   0.3547990   0.3790554   1.0643099  )
        98           Si  tau(  98) = (   0.4048461   0.4149602   0.0897169  )
        99           Si  tau(  99) = (   0.5165287   0.5443389   1.0642971  )
       100           Si  tau( 100) = (   0.5666106   0.5801721   0.0895899  )
       101           Si  tau( 101) = (   0.4958401   0.3387660   0.1769930  )
       102           Si  tau( 102) = (   0.5773206   0.4239484   0.2671516  )
       103           Si  tau( 103) = (   0.3239055   0.5031208   0.1769472  )
       104           Si  tau( 104) = (   0.4053470   0.5884172   0.2670664  )
       105           Si  tau( 105) = (   0.3345771   0.3467680   0.3544555  )
       106           Si  tau( 106) = (   0.4157131   0.4318474   0.4447802  )
       107           Si  tau( 107) = (   0.4958213   0.5116173   0.3543182  )
       108           Si  tau( 108) = (   0.5770797   0.5969086   0.4443309  )
       109           Si  tau( 109) = (   0.5061304   0.3547986   0.5318936  )
       110           Si  tau( 110) = (   0.5873151   0.4400567   0.6220426  )
       111           Si  tau( 111) = (   0.3341493   0.5196541   0.5318488  )
       112           Si  tau( 112) = (   0.4151718   0.6049087   0.6221533  )
       113           Si  tau( 113) = (   0.3444500   0.3628021   0.7095371  )
       114           Si  tau( 114) = (   0.4255573   0.4481892   0.7995860  )
       115           Si  tau( 115) = (   0.5056880   0.5278169   0.7090867  )
       116           Si  tau( 116) = (   0.5868580   0.6128317   0.7994082  )
       117           Si  tau( 117) = (   0.5163689   0.3715604   0.8867079  )
       118           Si  tau( 118) = (   0.5976521   0.4563868   0.9772541  )
       119           Si  tau( 119) = (   0.3439475   0.5357999   0.8866728  )
       120           Si  tau( 120) = (   0.4259316   0.6204135   0.9767930  )
       121           Si  tau( 121) = (   0.3454875   0.7083057   1.0643983  )
       122           Si  tau( 122) = (   0.3946379   0.7446848   0.0900031  )
       123           Si  tau( 123) = (   0.5055131   0.8742820   1.0641555  )
       124           Si  tau( 124) = (   0.5552669   0.9101719   0.0896022  )
       125           Si  tau( 125) = (   0.4856372   0.6683742   0.1769035  )
       126           Si  tau( 126) = (   0.5671284   0.7541493   0.2663615  )
       127           Si  tau( 127) = (   0.3133700   0.8329081   0.1769632  )
       128           Si  tau( 128) = (   0.3944073   0.9181390   0.2674625  )
       129           Si  tau( 129) = (   0.3237331   0.6761484   0.3540860  )
       130           Si  tau( 130) = (   0.4049054   0.7612416   0.4443043  )
       131           Si  tau( 131) = (   0.4851208   0.8411557   0.3540690  )
       132           Si  tau( 132) = (   0.5654518   0.9263530   0.4448441  )
       133           Si  tau( 133) = (   0.4953427   0.6844474   0.5315294  )
       134           Si  tau( 134) = (   0.5764439   0.7694033   0.6219233  )
       135           Si  tau( 135) = (   0.3236191   0.8489600   0.5316199  )
       136           Si  tau( 136) = (   0.4050674   0.9340163   0.6212823  )
       137           Si  tau( 137) = (   0.3335354   0.6925935   0.7094285  )
       138           Si  tau( 138) = (   0.4141694   0.7781693   0.7998959  )
       139           Si  tau( 139) = (   0.4947690   0.8571918   0.7090026  )
       140           Si  tau( 140) = (   0.5753767   0.9427714   0.7990430  )
       141           Si  tau( 141) = (   0.5051753   0.7007940   0.8862895  )
       142           Si  tau( 142) = (   0.5861639   0.7857242   0.9767675  )
       143           Si  tau( 143) = (   0.3327606   0.8666835   0.8872382  )
       144           Si  tau( 144) = (   0.4146928   0.9512883   0.9773190  )
       145           Si  tau( 145) = (   0.6997609   0.0502279   1.0640384  )
       146           Si  tau( 146) = (   0.7483378   0.0866000   0.0899404  )
       147           Si  tau( 147) = (   0.8597257   0.2155180   1.0647816  )
       148           Si  tau( 148) = (   0.9111557   0.2503325   0.0900869  )
       149           Si  tau( 149) = (   0.8391222   0.0134352   0.1792119  )
       150           Si  tau( 150) = (   0.9216908   0.0955420   0.2698678  )
       151           Si  tau( 151) = (   0.6672944   0.1737581   0.1774625  )
       152           Si  tau( 152) = (   0.7490533   0.2587094   0.2673539  )
       153           Si  tau( 153) = (   0.6779586   0.0170101   0.3551796  )
       154           Si  tau( 154) = (   0.7591717   0.1020924   0.4451571  )
       155           Si  tau( 155) = (   0.8392043   0.1823896   0.3555629  )
       156           Si  tau( 156) = (   0.9208831   0.2674367   0.4451986  )
       157           Si  tau( 157) = (   0.8500661   0.0250685   0.5316199  )
       158           Si  tau( 158) = (   0.9312868   0.1103522   0.6216358  )
       159           Si  tau( 159) = (   0.6779929   0.1901377   0.5319319  )
       160           Si  tau( 160) = (   0.7591790   0.2755044   0.6218211  )
       161           Si  tau( 161) = (   0.6552199   1.0224964   0.7083393  )
       162           Si  tau( 162) = (   0.7685875   0.1191261   0.7978089  )
       163           Si  tau( 163) = (   0.8499168   0.1984617   0.7084074  )
       164           Si  tau( 164) = (   0.9310692   0.2826716   0.7997574  )
       165           Si  tau( 165) = (   0.8242090   1.0295493   0.8826831  )
       166           Si  tau( 166) = (   0.9331607   0.1286143   0.9710763  )
       167           Si  tau( 167) = (   0.6886459   0.2064396   0.8866238  )
       168           Si  tau( 168) = (   0.7696914   0.2916639   0.9769591  )
       169           Si  tau( 169) = (   0.6883653   0.3794563   1.0641662  )
       170           Si  tau( 170) = (   0.7384153   0.4149252   0.0896875  )
       171           Si  tau( 171) = (   0.8496382   0.5442194   1.0637307  )
       172           Si  tau( 172) = (   0.8996269   0.5797256   0.0894792  )
       173           Si  tau( 173) = (   0.8291894   0.3382209   0.1767406  )
       174           Si  tau( 174) = (   0.9103568   0.4234243   0.2671164  )
       175           Si  tau( 175) = (   0.6575638   0.5035492   0.1766065  )
       176           Si  tau( 176) = (   0.7391547   0.5891985   0.2662103  )
       177           Si  tau( 177) = (   0.6676924   0.3468037   0.3542436  )
       178           Si  tau( 178) = (   0.7489012   0.4320683   0.4443405  )
       179           Si  tau( 179) = (   0.8289924   0.5116720   0.3537315  )
       180           Si  tau( 180) = (   0.9100291   0.5961353   0.4446162  )
       181           Si  tau( 181) = (   0.8394110   0.3553284   0.5317339  )
       182           Si  tau( 182) = (   0.9207498   0.4396117   0.6223013  )
       183           Si  tau( 183) = (   0.6674001   0.5197529   0.5314634  )
       184           Si  tau( 184) = (   0.7485732   0.6046404   0.6218115  )
       185           Si  tau( 185) = (   0.6778902   0.3631212   0.7092081  )
       186           Si  tau( 186) = (   0.7592033   0.4478412   0.7996361  )
       187           Si  tau( 187) = (   0.8390998   0.5274943   0.7089589  )
       188           Si  tau( 188) = (   0.9206864   0.6124077   0.7988673  )
       189           Si  tau( 189) = (   0.8501705   0.3708989   0.8866983  )
       190           Si  tau( 190) = (   0.9312402   0.4561193   0.9770337  )
       191           Si  tau( 191) = (   0.6775747   0.5358312   0.8864534  )
       192           Si  tau( 192) = (   0.7588136   0.6208988   0.9765055  )
       193           Si  tau( 193) = (   0.6774392   0.7091482   1.0631568  )
       194           Si  tau( 194) = (   0.7284715   0.7461120   0.0871474  )
       195           Si  tau( 195) = (   0.8388240   0.8752989   1.0599306  )
       196           Si  tau( 196) = (   0.8743737   0.8968905   0.1052812  )
       197           Si  tau( 197) = (   0.8193317   0.6697242   0.1757440  )
       198           Si  tau( 198) = (   0.9014299   0.7539416   0.2671920  )
       199           Si  tau( 199) = (   0.6476918   0.8343856   0.1758867  )
       200           Si  tau( 200) = (   0.7271994   0.9204388   0.2678266  )
       201           Si  tau( 201) = (   0.6571903   0.6766181   0.3535909  )
       202           Si  tau( 202) = (   0.7382082   0.7618086   0.4438390  )
       203           Si  tau( 203) = (   0.8187664   0.8422957   0.3536900  )
       204           Si  tau( 204) = (   0.8992636   0.9267946   0.4450837  )
       205           Si  tau( 205) = (   0.8282999   0.6842890   0.5309140  )
       206           Si  tau( 206) = (   0.9095336   0.7689410   0.6210928  )
       207           Si  tau( 207) = (   0.6562299   0.8491830   0.5311418  )
       208           Si  tau( 208) = (   0.7367979   0.9344411   0.6212674  )
       209           Si  tau( 209) = (   0.6669904   0.6923447   0.7088056  )
       210           Si  tau( 210) = (   0.7480467   0.7776548   0.7989014  )
       211           Si  tau( 211) = (   0.8273307   0.8568536   0.7072692  )
       212           Si  tau( 212) = (   0.9072971   0.9435079   0.7963800  )
       213           Si  tau( 213) = (   0.8387685   0.7002776   0.8855494  )
       214           Si  tau( 214) = (   0.9195042   0.7849002   0.9758614  )
       215           Si  tau( 215) = (   0.6656683   0.8652175   0.8857230  )
       216           H   tau( 216) = (   0.0284503   0.0338089   0.0527468  )
       217           H   tau( 217) = (   0.1544248   0.8712118   0.9038867  )
       218           H   tau( 218) = (   0.8217585   0.8418476   0.1584864  )
       219           H   tau( 219) = (   0.9880167   0.0755632   1.0268421  )

   Crystallographic axes

     site n.     atom                  positions (cryst. coord.)
         1           Si  tau(   1) = (  0.7470890  0.9157560  0.9156110  )
         2           Si  tau(   2) = (  0.0871574  0.0858635  0.0946886  )
         3           Si  tau(   3) = (  0.1665100  0.1656670  0.0001184  )
         4           Si  tau(   4) = (  0.2487490  0.2480510  0.0845235  )
         5           Si  tau(   5) = (  0.1706490  0.0002633  0.1701420  )
         6           Si  tau(   6) = (  0.2509280  0.0833481  0.2530530  )
         7           Si  tau(   7) = (  0.0010419  0.1696290  0.1692390  )
         8           Si  tau(   8) = (  0.0836340  0.2497020  0.2524240  )
         9           Si  tau(   9) = (  0.0017979  0.0008571  0.3338010  )
        10           Si  tau(  10) = (  0.0830244  0.0823750  0.4182990  )
        11           Si  tau(  11) = (  0.1686630  0.1674920  0.3340020  )
        12           Si  tau(  12) = (  0.2498520  0.2492340  0.4183070  )
        13           Si  tau(  13) = (  0.1684890  0.0001163  0.4994410  )
        14           Si  tau(  14) = (  0.2496650  0.0816939  0.5841830  )
        15           Si  tau(  15) = (  0.0014837  0.1671890  0.4995020  )
        16           Si  tau(  16) = (  0.0828072  0.2487930  0.5841350  )
        17           Si  tau(  17) = (  0.0014369  0.0003161  0.6648600  )
        18           Si  tau(  18) = (  0.0812878  0.0828460  0.7497040  )
        19           Si  tau(  19) = (  0.1682500  0.1668020  0.6656060  )
        20           Si  tau(  20) = (  0.2489040  0.2480840  0.7513110  )
        21           Si  tau(  21) = (  0.1703010  0.0036252  0.8293910  )
        22           Si  tau(  22) = (  0.2489550  0.0826730  0.9184310  )
        23           Si  tau(  23) = (  0.0006782  0.1659080  0.8330300  )
        24           Si  tau(  24) = (  0.0813098  0.2475630  0.9184060  )
        25           Si  tau(  25) = (  0.0015503  0.3331990  0.9994840  )
        26           Si  tau(  26) = (  0.0827550  0.4149560  0.0841947  )
        27           Si  tau(  27) = (  0.1682260  0.4998130  0.9993000  )
        28           Si  tau(  28) = (  0.2495290  0.5814950  0.0843556  )
        29           Si  tau(  29) = (  0.1682590  0.3333760  0.1660780  )
        30           Si  tau(  30) = (  0.2496050  0.4152680  0.2510370  )
        31           Si  tau(  31) = (  0.0016595  0.5000380  0.1658280  )
        32           Si  tau(  32) = (  0.0827432  0.5816760  0.2510840  )
        33           Si  tau(  33) = (  0.0014755  0.3339020  0.3330930  )
        34           Si  tau(  34) = (  0.0828323  0.4152180  0.4175600  )
        35           Si  tau(  35) = (  0.1683460  0.5000750  0.3327440  )
        36           Si  tau(  36) = (  0.2496560  0.5818350  0.4175300  )
        37           Si  tau(  37) = (  0.1683060  0.3338990  0.4996140  )
        38           Si  tau(  38) = (  0.2494940  0.4153090  0.5846140  )
        39           Si  tau(  39) = (  0.0014042  0.4993970  0.4990960  )
        40           Si  tau(  40) = (  0.0832064  0.5804640  0.5833790  )
        41           Si  tau(  41) = (  0.0013616  0.3328760  0.6662940  )
        42           Si  tau(  42) = (  0.0826466  0.4144990  0.7511150  )
        43           Si  tau(  43) = (  0.1681810  0.4996800  0.6664540  )
        44           Si  tau(  44) = (  0.2487040  0.5821280  0.7515260  )
        45           Si  tau(  45) = (  0.1673320  0.3324010  0.8333170  )
        46           Si  tau(  46) = (  0.2490620  0.4145250  0.9177620  )
        47           Si  tau(  47) = (  0.0016968  0.4996640  0.8325970  )
        48           Si  tau(  48) = (  0.0828207  0.5816060  0.9173210  )
        49           Si  tau(  49) = (  0.0013936  0.6664770  0.9992220  )
        50           Si  tau(  50) = (  0.0826768  0.7480090  0.0848793  )
        51           Si  tau(  51) = (  0.1699890  0.8326600  0.0029231  )
        52           Si  tau(  52) = (  0.2501960  0.9170130  0.0857549  )
        53           Si  tau(  53) = (  0.1684370  0.6664720  0.1662550  )
        54           Si  tau(  54) = (  0.2496380  0.7486270  0.2510220  )
        55           Si  tau(  55) = (  0.0055040  0.8343930  0.1672650  )
        56           Si  tau(  56) = (  0.0839632  0.9157190  0.2537630  )
        57           Si  tau(  57) = (  0.0017752  0.6664140  0.3331170  )
        58           Si  tau(  58) = (  0.0828746  0.7479690  0.4180180  )
        59           Si  tau(  59) = (  0.1689850  0.8327200  0.3340510  )
        60           Si  tau(  60) = (  0.2500750  0.9152120  0.4181570  )
        61           Si  tau(  61) = (  0.1685150  0.6663900  0.4994630  )
        62           Si  tau(  62) = (  0.2494820  0.7483270  0.5843640  )
        63           Si  tau(  63) = (  0.0015618  0.8331910  0.4991420  )
        64           Si  tau(  64) = (  0.0826438  0.9151360  0.5838800  )
        65           Si  tau(  65) = (  0.0013708  0.6647230  0.6637280  )
        66           Si  tau(  66) = (  0.0809331  0.7464960  0.7482450  )
        67           Si  tau(  67) = (  0.1679550  0.8335380  0.6658260  )
        68           Si  tau(  68) = (  0.2505290  0.9167900  0.7495310  )
        69           Si  tau(  69) = (  0.1674760  0.6683280  0.8329330  )
        70           Si  tau(  70) = (  0.2500880  0.7479320  0.9198980  )
        71           Si  tau(  71) = (  0.9967790  0.8295870  0.8271150  )
        72           Si  tau(  72) = (  0.1022600  0.8931290  0.8963970  )
        73           Si  tau(  73) = (  0.3346430  0.0004980  0.9993130  )
        74           Si  tau(  74) = (  0.4157770  0.0821428  0.0843016  )
        75           Si  tau(  75) = (  0.5014550  0.1669440  0.9994800  )
        76           Si  tau(  76) = (  0.5823540  0.2488810  0.0845911  )
        77           Si  tau(  77) = (  0.5015200  0.0003472  0.1659700  )
        78           Si  tau(  78) = (  0.5824540  0.0818848  0.2513360  )
        79           Si  tau(  79) = (  0.3348790  0.1670290  0.1661750  )
        80           Si  tau(  80) = (  0.4161960  0.2489730  0.2510590  )
        81           Si  tau(  81) = (  0.3358060  1.0001000  0.3335290  )
        82           Si  tau(  82) = (  0.4163150  0.0821856  0.4179810  )
        83           Si  tau(  83) = (  0.5015420  0.1670190  0.3328450  )
        84           Si  tau(  84) = (  0.5826930  0.2488820  0.4176410  )
        85           Si  tau(  85) = (  0.5017330  0.0002886  0.4992300  )
        86           Si  tau(  86) = (  0.5821440  0.0822288  0.5841970  )
        87           Si  tau(  87) = (  0.3350600  0.1669750  0.4996510  )
        88           Si  tau(  88) = (  0.4159810  0.2486240  0.5846280  )
        89           Si  tau(  89) = (  0.3365050  0.9999590  0.6643150  )
        90           Si  tau(  90) = (  0.4159690  0.0814583  0.7509140  )
        91           Si  tau(  91) = (  0.5013490  0.1669050  0.6663970  )
        92           Si  tau(  92) = (  0.5825350  0.2488060  0.7511370  )
        93           Si  tau(  93) = (  0.5015290  1.0000300  0.8328800  )
        94           Si  tau(  94) = (  0.5827770  0.0820396  0.9177360  )
        95           Si  tau(  95) = (  0.3347700  0.1663640  0.8327220  )
        96           Si  tau(  96) = (  0.4159850  0.2485280  0.9175480  )
        97           Si  tau(  97) = (  0.3344810  0.3328680  0.9995770  )
        98           Si  tau(  98) = (  0.4158110  0.4151310  0.0842602  )
        99           Si  tau(  99) = (  0.5016820  0.4999060  0.9995650  )
       100           Si  tau( 100) = (  0.5830480  0.5821020  0.0841409  )
       101           Si  tau( 101) = (  0.5015880  0.3340110  0.1662280  )
       102           Si  tau( 102) = (  0.5831040  0.4158440  0.2509030  )
       103           Si  tau( 103) = (  0.3350950  0.5001120  0.1661850  )
       104           Si  tau( 104) = (  0.4165770  0.5820620  0.2508230  )
       105           Si  tau( 105) = (  0.3351100  0.3337260  0.3328970  )
       106           Si  tau( 106) = (  0.4162730  0.4154470  0.4177280  )
       107           Si  tau( 107) = (  0.5018150  0.5003310  0.3327680  )
       108           Si  tau( 108) = (  0.5831170  0.5822810  0.4173060  )
       109           Si  tau( 109) = (  0.5014500  0.3334710  0.4995430  )
       110           Si  tau( 110) = (  0.5826730  0.4153810  0.5842090  )
       111           Si  tau( 111) = (  0.3349270  0.5000780  0.4995010  )
       112           Si  tau( 112) = (  0.4159830  0.5819770  0.5843130  )
       113           Si  tau( 113) = (  0.3345490  0.3331790  0.6663820  )
       114           Si  tau( 114) = (  0.4157020  0.4152240  0.7509540  )
       115           Si  tau( 115) = (  0.5012630  0.4999660  0.6659590  )
       116           Si  tau( 116) = (  0.5824580  0.5816220  0.7507870  )
       117           Si  tau( 117) = (  0.5012870  0.3336720  0.8327770  )
       118           Si  tau( 118) = (  0.5825820  0.4151270  0.9178160  )
       119           Si  tau( 119) = (  0.3343030  0.4996560  0.8327440  )
       120           Si  tau( 120) = (  0.4163050  0.5809160  0.9173830  )
       121           Si  tau( 121) = (  0.3360650  0.6656080  0.9996600  )
       122           Si  tau( 122) = (  0.4165080  0.7483410  0.0845290  )
       123           Si  tau( 123) = (  0.5015920  0.8333570  0.9994320  )
       124           Si  tau( 124) = (  0.5826270  0.9156030  0.0841525  )
       125           Si  tau( 125) = (  0.5022980  0.6671210  0.1661440  )
       126           Si  tau( 126) = (  0.5838660  0.7495860  0.2501610  )
       127           Si  tau( 127) = (  0.3354750  0.8333980  0.1662000  )
       128           Si  tau( 128) = (  0.4165390  0.9152640  0.2511950  )
       129           Si  tau( 129) = (  0.3351800  0.6666190  0.3325500  )
       130           Si  tau( 130) = (  0.4163830  0.7483590  0.4172810  )
       131           Si  tau( 131) = (  0.5020300  0.8333780  0.3325340  )
       132           Si  tau( 132) = (  0.5823780  0.9151970  0.4177880  )
       133           Si  tau( 133) = (  0.5015850  0.6666350  0.4992010  )
       134           Si  tau( 134) = (  0.5827070  0.7482280  0.5840970  )
       135           Si  tau( 135) = (  0.3353040  0.8328890  0.4992860  )
       136           Si  tau( 136) = (  0.4167990  0.9146180  0.5834950  )
       137           Si  tau( 137) = (  0.3345540  0.6664750  0.6662800  )
       138           Si  tau( 138) = (  0.4152270  0.7486910  0.7512450  )
       139           Si  tau( 139) = (  0.5012490  0.8328400  0.6658800  )
       140           Si  tau( 140) = (  0.5819090  0.9150800  0.7504440  )
       141           Si  tau( 141) = (  0.5010040  0.6664190  0.8323840  )
       142           Si  tau( 142) = (  0.5820100  0.7479820  0.9173590  )
       143           Si  tau( 143) = (  0.3340510  0.8340240  0.8332750  )
       144           Si  tau( 144) = (  0.4160020  0.9152770  0.9178770  )
       145           Si  tau( 145) = (  0.6685670  0.0005640  0.9993220  )
       146           Si  tau( 146) = (  0.7484270  0.0832759  0.0844701  )
       147           Si  tau( 147) = (  0.8339800  0.1675730  1.0000200  )
       148           Si  tau( 148) = (  0.9166600  0.2487390  0.0846077  )
       149           Si  tau( 149) = (  0.8340330  0.0051233  0.1683120  )
       150           Si  tau( 150) = (  0.9165200  0.0838246  0.2534540  )
       151           Si  tau( 151) = (  0.6675660  0.1672300  0.1666690  )
       152           Si  tau( 152) = (  0.7493610  0.2488420  0.2510930  )
       153           Si  tau( 153) = (  0.6675540  0.0004348  0.3335770  )
       154           Si  tau( 154) = (  0.7488050  0.0821751  0.4180820  )
       155           Si  tau( 155) = (  0.8342620  0.1675510  0.3339370  )
       156           Si  tau( 156) = (  0.9159880  0.2492720  0.4181210  )
       157           Si  tau( 157) = (  0.8344800  0.0002549  0.4992860  )
       158           Si  tau( 158) = (  0.9157440  0.0821970  0.5838270  )
       159           Si  tau( 159) = (  0.6678610  0.1670610  0.4995790  )
       160           Si  tau( 160) = (  0.7490970  0.2490930  0.5840010  )
       161           Si  tau( 161) = (  0.6671920  0.9999300  0.6652570  )
       162           Si  tau( 162) = (  0.7478950  0.0827529  0.7492850  )
       163           Si  tau( 163) = (  0.8346110  0.1671480  0.6653210  )
       164           Si  tau( 164) = (  0.9157300  0.2479420  0.7511150  )
       165           Si  tau( 165) = (  0.8310310  0.9988330  0.8289970  )
       166           Si  tau( 166) = (  0.9074320  0.0841678  0.9120140  )
       167           Si  tau( 167) = (  0.6681010  0.1668030  0.8326980  )
       168           Si  tau( 168) = (  0.7491780  0.2486700  0.9175390  )
       169           Si  tau( 169) = (  0.6680650  0.3332800  0.9994420  )
       170           Si  tau( 170) = (  0.7493800  0.4150970  0.0842326  )
       171           Si  tau( 171) = (  0.8348050  0.4998120  0.9990330  )
       172           Si  tau( 172) = (  0.9160530  0.5816560  0.0840369  )
       173           Si  tau( 173) = (  0.8349270  0.3334720  0.1659910  )
       174           Si  tau( 174) = (  0.9161240  0.4153160  0.2508700  )
       175           Si  tau( 175) = (  0.6687780  0.5005610  0.1658650  )
       176           Si  tau( 176) = (  0.7504370  0.5828920  0.2500190  )
       177           Si  tau( 177) = (  0.6682330  0.3337720  0.3326980  )
       178           Si  tau( 178) = (  0.7494820  0.4156910  0.4173150  )
       179           Si  tau( 179) = (  0.8350060  0.5004140  0.3322170  )
       180           Si  tau( 180) = (  0.9160320  0.5814860  0.4175740  )
       181           Si  tau( 181) = (  0.8347530  0.3340140  0.4993930  )
       182           Si  tau( 182) = (  0.9160850  0.4149190  0.5844520  )
       183           Si  tau( 183) = (  0.6681930  0.5001960  0.4991390  )
       184           Si  tau( 184) = (  0.7493860  0.5817220  0.5839920  )
       185           Si  tau( 185) = (  0.6680100  0.3335170  0.6660730  )
       186           Si  tau( 186) = (  0.7493350  0.4148700  0.7510010  )
       187           Si  tau( 187) = (  0.8346680  0.4996460  0.6658390  )
       188           Si  tau( 188) = (  0.9162890  0.5812190  0.7502790  )
       189           Si  tau( 189) = (  0.8350670  0.3330040  0.8327680  )
       190           Si  tau( 190) = (  0.9161680  0.4148670  0.9176090  )
       191           Si  tau( 191) = (  0.6679380  0.4996980  0.8325380  )
       192           Si  tau( 192) = (  0.7492120  0.5814200  0.9171130  )
       193           Si  tau( 193) = (  0.6680830  0.6665180  0.9984940  )
       194           Si  tau( 194) = (  0.7504770  0.7499180  0.0818470  )
       195           Si  tau( 195) = (  0.8350670  0.8345840  0.9954640  )
       196           Si  tau( 196) = (  0.9008100  0.9014410  0.0988778  )
       197           Si  tau( 197) = (  0.8360730  0.6685400  0.1650550  )
       198           Si  tau( 198) = (  0.9181350  0.7493370  0.2509410  )
       199           Si  tau( 199) = (  0.6698790  0.8349420  0.1651890  )
       200           Si  tau( 200) = (  0.7493960  0.9175710  0.2515370  )
       201           Si  tau( 201) = (  0.6686680  0.6671170  0.3320850  )
       202           Si  tau( 202) = (  0.7497190  0.7489540  0.4168440  )
       203           Si  tau( 203) = (  0.8357250  0.8345480  0.3321780  )
       204           Si  tau( 204) = (  0.9161970  0.9156320  0.4180130  )
       205           Si  tau( 205) = (  0.8345560  0.6665040  0.4986230  )
       206           Si  tau( 206) = (  0.9158070  0.7478000  0.5833170  )
       207           Si  tau( 207) = (  0.6679370  0.8331370  0.4988370  )
       208           Si  tau( 208) = (  0.7485440  0.9150480  0.5834810  )
       209           Si  tau( 209) = (  0.6680200  0.6662530  0.6656950  )
       210           Si  tau( 210) = (  0.7491180  0.7482180  0.7503110  )
       211           Si  tau( 211) = (  0.8338530  0.8325800  0.6642520  )
       212           Si  tau( 212) = (  0.9139360  0.9159500  0.7479430  )
       213           Si  tau( 213) = (  0.8346030  0.6659320  0.8316890  )
       214           Si  tau( 214) = (  0.9153510  0.7471920  0.9165080  )
       215           Si  tau( 215) = (  0.6669570  0.8326140  0.8318520  )
       216           H   tau( 216) = (  0.0279406  0.0316793  0.0495387  )
       217           H   tau( 217) = (  0.1553510  0.8378150  0.8489110  )
       218           H   tau( 218) = (  0.8447300  0.8433040  0.1488470  )
       219           H   tau( 219) = (  0.9588100  0.0279230  0.9643880  )

     number of k points=     8  Marzari-Vanderbilt smearing, width (Ry)=  0.0500
                       cart. coord. in units 2pi/alat
        k(    1) = (   0.0000000   0.0000000   0.0000000), wk =   0.2500000
        k(    2) = (   0.0000000   0.0000000  -0.4695892), wk =   0.2500000
        k(    3) = (   0.0000000  -0.5053057   0.0235879), wk =   0.2500000
        k(    4) = (   0.0000000  -0.5053057  -0.4460014), wk =   0.2500000
        k(    5) = (  -0.5000000  -0.0165501   0.0154395), wk =   0.2500000
        k(    6) = (  -0.5000000  -0.0165501  -0.4541497), wk =   0.2500000
        k(    7) = (  -0.5000000  -0.5218558   0.0390274), wk =   0.2500000
        k(    8) = (  -0.5000000  -0.5218558  -0.4305618), wk =   0.2500000

                       cryst. coord.
        k(    1) = (   0.0000000   0.0000000   0.0000000), wk =   0.2500000
        k(    2) = (   0.0000000   0.0000000  -0.5000000), wk =   0.2500000
        k(    3) = (   0.0000000  -0.5000000   0.0000000), wk =   0.2500000
        k(    4) = (   0.0000000  -0.5000000  -0.5000000), wk =   0.2500000
        k(    5) = (  -0.5000000   0.0000000   0.0000000), wk =   0.2500000
        k(    6) = (  -0.5000000   0.0000000  -0.5000000), wk =   0.2500000
        k(    7) = (  -0.5000000  -0.5000000   0.0000000), wk =   0.2500000
        k(    8) = (  -0.5000000  -0.5000000  -0.5000000), wk =   0.2500000

     Dense  grid:  1134353 G-vectors     FFT dimensions: ( 128, 125, 135)

     Dynamical RAM for                 wfc:     140.10 MB

     Dynamical RAM for     wfc (w. buffer):    1260.89 MB

     Dynamical RAM for           str. fact:       4.33 MB

     Dynamical RAM for           local pot:       0.00 MB

     Dynamical RAM for          nlocal pot:     290.75 MB

     Dynamical RAM for                qrad:       1.75 MB

     Dynamical RAM for          rho,v,vnew:      12.72 MB

     Dynamical RAM for               rhoin:       4.24 MB

     Dynamical RAM for            rho*nmix:      34.62 MB

     Dynamical RAM for           G-vectors:       9.20 MB

     Dynamical RAM for          h,s,v(r/c):     196.53 MB

     Dynamical RAM for          <psi|beta>:       8.50 MB

     Dynamical RAM for                 psi:     560.40 MB

     Dynamical RAM for                hpsi:     560.40 MB

     Dynamical RAM for      wfcinit/wfcrot:     484.45 MB

     Estimated static dynamical RAM per process >       1.60 GB

     Estimated max dynamical RAM per process >       2.89 GB

     Estimated total dynamical RAM >      23.13 GB

     Initial potential from superposition of free atoms

     starting charge  863.87972, renormalised to  864.00000
     Starting wfc are  864 randomized atomic wfcs

     total cpu time spent up to now is      251.7 secs

     Self-consistent Calculation

     iteration #  1     ecut=    42.00 Ry     beta= 0.30
     Davidson diagonalization with overlap
     ethr =  1.00E-02,  avg # of iterations =  3.0

     Threshold (ethr) on eigenvalues was too large:
     Diagonalizing with lowered threshold

     Davidson diagonalization with overlap
     ethr =  7.00E-04,  avg # of iterations =  1.0

     total cpu time spent up to now is     1186.5 secs

     total energy              =   -1697.46048929 Ry
     Harris-Foulkes estimate   =   -1698.31481796 Ry
     estimated scf accuracy    <       5.92047132 Ry

     iteration #  2     ecut=    42.00 Ry     beta= 0.30
     Davidson diagonalization with overlap
     ethr =  6.85E-04,  avg # of iterations =  1.0

     total cpu time spent up to now is     1518.1 secs

     total energy              =   -1696.98454845 Ry
     Harris-Foulkes estimate   =   -1697.53556807 Ry
     estimated scf accuracy    <       2.48502383 Ry

     iteration #  3     ecut=    42.00 Ry     beta= 0.30
     Davidson diagonalization with overlap
     ethr =  2.88E-04,  avg # of iterations = 11.0

     total cpu time spent up to now is     2105.4 secs

     total energy              =   -1697.08623558 Ry
     Harris-Foulkes estimate   =   -1697.15249347 Ry
     estimated scf accuracy    <       0.28273301 Ry

     iteration #  4     ecut=    42.00 Ry     beta= 0.30
     Davidson diagonalization with overlap
     ethr =  3.27E-05,  avg # of iterations =  9.6

     total cpu time spent up to now is     2816.4 secs

     total energy              =   -1697.11923601 Ry
     Harris-Foulkes estimate   =   -1697.14817633 Ry
     estimated scf accuracy    <       0.13874442 Ry

     iteration #  5     ecut=    42.00 Ry     beta= 0.30
     Davidson diagonalization with overlap
     ethr =  1.61E-05,  avg # of iterations =  5.8

     total cpu time spent up to now is     3328.7 secs

     total energy              =   -1697.12766200 Ry
     Harris-Foulkes estimate   =   -1697.13954966 Ry
     estimated scf accuracy    <       0.06092384 Ry

     iteration #  6     ecut=    42.00 Ry     beta= 0.30
     Davidson diagonalization with overlap
     ethr =  7.05E-06,  avg # of iterations =  6.2

     total cpu time spent up to now is     3846.2 secs

     total energy              =   -1697.13190605 Ry
     Harris-Foulkes estimate   =   -1697.13658304 Ry
     estimated scf accuracy    <       0.02670353 Ry

     iteration #  7     ecut=    42.00 Ry     beta= 0.30
     Davidson diagonalization with overlap
     ethr =  3.09E-06,  avg # of iterations =  6.5

     total cpu time spent up to now is     4353.2 secs

     total energy              =   -1697.13423818 Ry
     Harris-Foulkes estimate   =   -1697.13504374 Ry
     estimated scf accuracy    <       0.00464899 Ry

     iteration #  8     ecut=    42.00 Ry     beta= 0.30
     Davidson diagonalization with overlap
     ethr =  5.38E-07,  avg # of iterations =  3.0

     total cpu time spent up to now is     4760.2 secs

     total energy              =   -1697.13471423 Ry
     Harris-Foulkes estimate   =   -1697.13487382 Ry
     estimated scf accuracy    <       0.00088786 Ry

     iteration #  9     ecut=    42.00 Ry     beta= 0.30
     Davidson diagonalization with overlap
     ethr =  1.03E-07,  avg # of iterations =  2.8

     total cpu time spent up to now is     5169.2 secs

     total energy              =   -1697.13478432 Ry
     Harris-Foulkes estimate   =   -1697.13484318 Ry
     estimated scf accuracy    <       0.00026450 Ry

     iteration # 10     ecut=    42.00 Ry     beta= 0.30
     Davidson diagonalization with overlap
     ethr =  3.06E-08,  avg # of iterations =  3.4

     total cpu time spent up to now is     5606.7 secs

     total energy              =   -1697.13481141 Ry
     Harris-Foulkes estimate   =   -1697.13483803 Ry
     estimated scf accuracy    <       0.00013670 Ry

     iteration # 11     ecut=    42.00 Ry     beta= 0.30
     Davidson diagonalization with overlap
     ethr =  1.58E-08,  avg # of iterations =  2.8

     total cpu time spent up to now is     6000.3 secs

     total energy              =   -1697.13482700 Ry
     Harris-Foulkes estimate   =   -1697.13483096 Ry
     estimated scf accuracy    <       0.00002932 Ry

     iteration # 12     ecut=    42.00 Ry     beta= 0.30
     Davidson diagonalization with overlap
     ethr =  3.39E-09,  avg # of iterations =  3.2

     total cpu time spent up to now is     6417.7 secs

     total energy              =   -1697.13482930 Ry
     Harris-Foulkes estimate   =   -1697.13483301 Ry
     estimated scf accuracy    <       0.00002048 Ry

     iteration # 13     ecut=    42.00 Ry     beta= 0.30
     Davidson diagonalization with overlap
     ethr =  2.37E-09,  avg # of iterations =  2.6

     total cpu time spent up to now is     6799.1 secs

     total energy              =   -1697.13483217 Ry
     Harris-Foulkes estimate   =   -1697.13483230 Ry
     estimated scf accuracy    <       0.00000501 Ry

     iteration # 14     ecut=    42.00 Ry     beta= 0.30
     Davidson diagonalization with overlap
     ethr =  5.80E-10,  avg # of iterations =  2.5

     total cpu time spent up to now is     7177.8 secs

     total energy              =   -1697.13483299 Ry
     Harris-Foulkes estimate   =   -1697.13483274 Ry
     estimated scf accuracy    <       0.00000066 Ry

     iteration # 15     ecut=    42.00 Ry     beta= 0.30
     Davidson diagonalization with overlap
     ethr =  7.61E-11,  avg # of iterations =  3.0

     total cpu time spent up to now is     7632.5 secs

     total energy              =   -1697.13483325 Ry
     Harris-Foulkes estimate   =   -1697.13483310 Ry
     estimated scf accuracy    <       0.00000028 Ry

     iteration # 16     ecut=    42.00 Ry     beta= 0.30
     Davidson diagonalization with overlap
     ethr =  3.23E-11,  avg # of iterations =  3.1

     total cpu time spent up to now is     8054.8 secs

     total energy              =   -1697.13483333 Ry
     Harris-Foulkes estimate   =   -1697.13483329 Ry
     estimated scf accuracy    <       0.00000017 Ry

     iteration # 17     ecut=    42.00 Ry     beta= 0.30
     Davidson diagonalization with overlap
     ethr =  1.95E-11,  avg # of iterations =  3.2

     total cpu time spent up to now is     8454.2 secs

     total energy              =   -1697.13483340 Ry
     Harris-Foulkes estimate   =   -1697.13483335 Ry
     estimated scf accuracy    <       0.00000012 Ry

     iteration # 18     ecut=    42.00 Ry     beta= 0.30
     Davidson diagonalization with overlap
     ethr =  1.34E-11,  avg # of iterations =  3.1

     total cpu time spent up to now is     8843.3 secs

     total energy              =   -1697.13483342 Ry
     Harris-Foulkes estimate   =   -1697.13483341 Ry
     estimated scf accuracy    <       0.00000003 Ry

     iteration # 19     ecut=    42.00 Ry     beta= 0.30
     Davidson diagonalization with overlap
     ethr =  3.52E-12,  avg # of iterations =  3.4

     total cpu time spent up to now is     9248.7 secs

     End of self-consistent calculation

          k = 0.0000 0.0000 0.0000 (141771 PWs)   bands (ev):

    -5.9715  -5.5717  -5.5401  -5.5124  -5.5076  -5.4836  -5.4641  -5.1800
    -5.1483  -5.1182  -5.1104  -5.0955  -5.0759  -5.0505  -5.0358  -5.0236
    -5.0083  -4.9922  -4.9635  -4.7404  -4.7268  -4.7041  -4.6894  -4.6846
    -4.6521  -4.5440  -4.5092  -4.3144  -4.2594  -4.1336  -4.1113  -4.0892
    -4.0478  -4.0051  -3.9728  -3.9544  -3.9483  -3.8789  -3.8729  -3.8304
    -3.8260  -3.8202  -3.8138  -3.8082  -3.7962  -3.7943  -3.7912  -3.7861
    -3.7693  -3.7580  -3.7546  -3.7427  -3.7386  -3.7158  -3.7046  -3.6915
    -3.6870  -3.6838  -3.6773  -3.6739  -3.6673  -3.6579  -3.6565  -3.6502
    -3.6486  -3.6465  -3.6382  -3.6369  -3.6351  -3.6342  -3.6316  -3.6276
    -3.6024  -3.5998  -3.4653  -3.4370  -3.3859  -3.3619  -3.3507  -3.3330
    -3.2096  -3.0150  -3.0107  -2.9820  -2.9766  -2.9668  -2.9227  -2.7863
    -2.7742  -2.7646  -2.7457  -2.7132  -2.6563  -2.3028  -2.2130  -2.2001
    -2.1902  -2.1710  -2.1423  -2.0292  -2.0177  -2.0023  -1.9872  -1.9652
    -1.9582  -1.9565  -1.9523  -1.9454  -1.9401  -1.9246  -1.9146  -1.9133
    -1.8538  -1.8052  -1.7702  -1.7397  -1.7305  -1.7275  -1.6989  -1.6873
    -1.6679  -1.6614  -1.5420  -1.2418  -1.2044  -1.1911  -1.1488  -1.0498
    -1.0025  -0.9738  -0.9205  -0.9025  -0.8815  -0.8652  -0.8577  -0.8504
    -0.8445  -0.8361  -0.8334  -0.8302  -0.8261  -0.8235  -0.8229  -0.8172
    -0.7978  -0.7908  -0.7798  -0.7696  -0.7499  -0.7324  -0.7204  -0.7161
    -0.7136  -0.7081  -0.7065  -0.6938  -0.6922  -0.5886  -0.3681  -0.1051
    -0.0805  -0.0589  -0.0440  -0.0354  -0.0199  -0.0158  -0.0005   0.0090
     0.0147   0.0191   0.0222   0.0319   0.0371   0.0424   0.0986   0.1260
     0.1409   0.1446   0.1735   0.1801   0.1880   0.1993   0.2786   0.3183
     0.3363   0.3452   0.3654   0.3710   0.3888   0.4127   0.6187   0.7157
     0.7284   0.7593   0.8059   0.8447   1.1330   1.3055   1.3367   1.3642
     1.3724   1.4448   1.4689   1.5135   1.5397   1.5544   1.5695   1.5763
     1.5915   1.7274   1.7357   1.8196   1.8387   1.8985   1.9020   1.9218
     1.9276   1.9396   1.9627   1.9712   1.9764   1.9905   2.0044   2.0088
     2.0177   2.0291   2.0419   2.0502   2.0569   2.0574   2.0643   2.0697
     2.0832   2.0856   2.1022   2.1098   2.1235   2.1655   2.1859   2.1976
     2.2219   2.2273   2.2351   2.2425   2.2480   2.2518   2.2594   2.2738
     2.2833   2.2892   2.3135   2.3163   2.3350   2.3440   2.3564   2.3810
     2.3830   2.4072   2.4319   2.4413   2.4474   2.4644   2.4673   2.4715
     2.4805   2.4872   2.4979   2.5280   2.5340   2.5561   2.5648   2.5921
     2.5979   2.6816   2.7103   2.7164   2.7542   2.7824   2.8278   2.8418
     2.8489   2.8932   2.9041   2.9350   2.9526   2.9775   2.9914   2.9958
     3.0236   3.0502   3.0647   3.0735   3.0786   3.0838   3.0926   3.1049
     3.1094   3.1123   3.1285   3.1437   3.1665   3.1840   3.1876   3.2018
     3.2085   3.2268   3.2482   3.2546   3.2556   3.2622   3.2926   3.3077
     3.3271   3.3291   3.3456   3.3518   3.3618   3.3678   3.3719   3.3804
     3.3844   3.3851   3.3919   3.3966   3.4065   3.4336   3.4355   3.4368
     3.4491   3.4603   3.4619   3.4724   3.4851   3.4979   3.5054   3.5129
     3.5183   3.5250   3.5411   3.5469   3.5553   3.5658   3.5724   3.5790
     3.5820   3.5892   3.5898   3.5952   3.6023   3.6124   3.6192   3.6260
     3.6340   3.6512   3.6569   3.6811   3.6942   3.7084   3.7144   3.7254
     3.7329   3.7452   3.7581   3.7632   3.7901   3.8009   3.8079   3.8283
     3.8708   3.8784   3.9126   3.9267   3.9422   3.9473   4.0150   4.0232
     4.0426   4.0699   4.0764   4.0799   4.1204   4.1295   4.1308   4.1713
     4.1738   4.1812   4.1906   4.2048   4.2124   4.2282   4.2382   4.3403
     4.3712   4.4303   4.4326   4.4497   4.4619   4.4642   4.4859   4.5261
     4.5528   4.5921   4.6098   4.6216   4.6530   4.6706   4.7006   4.7156
     4.7365   4.7988   4.8154   4.8227   4.8411   4.9038   4.9315   4.9381
     4.9508   4.9791   4.9944   5.0633   5.1025   5.1113   5.1209   5.1483
     5.1632   5.2213   5.2393   5.2489   5.4853   5.5223   5.6110   5.9642
     6.0241   6.0643   6.2010   6.2239   6.2730   6.3016   6.4861   6.5531
     6.5731   6.6030   6.6683   6.7884   6.8030   6.8263   6.8387   6.8682
     6.8867   7.0060   7.0380   7.0425   7.0771   7.0856   7.0976   7.1457
     7.1877   7.1954   7.2033   7.2121   7.2505   7.2614   7.2795   7.2970
     7.3217   7.3344   7.3663   7.3806   7.3942   7.4217   7.4321   7.4528
     7.4606   7.4650   7.4897   7.5158   7.5306   7.5906   7.6197   7.6226
     7.6287   7.6414   7.6455   7.6524   7.6580   7.6677   7.6785   7.6816
     7.6903   7.7083   7.7252   7.7448   7.7560   7.7946   7.8200   7.8447
     7.8563   7.8746   7.8819   7.9004   7.9066   7.9172   7.9195   7.9261
     7.9370   7.9461   7.9498   7.9545   7.9612   7.9796   7.9949   8.0031
     8.0068   8.0259   8.0421   8.0568   8.0842   8.1253

     occupation numbers 
     1.0000   1.0000   1.0000   1.0000   1.0000   1.0000   1.0000   1.0000
     1.0000   1.0000   1.0000   1.0000   1.0000   1.0000   1.0000   1.0000
     1.0000   1.0000   1.0000   1.0000   1.0000   1.0000   1.0000   1.0000
     1.0000   1.0000   1.0000   1.0000   1.0000   1.0000   1.0000   1.0000
     1.0000   1.0000   1.0000   1.0000   1.0000   1.0000   1.0000   1.0000
     1.0000   1.0000   1.0000   1.0000   1.0000   1.0000   1.0000   1.0000
     1.0000   1.0000   1.0000   1.0000   1.0000   1.0000   1.0000   1.0000
     1.0000   1.0000   1.0000   1.0000   1.0000   1.0000   1.0000   1.0000
     1.0000   1.0000   1.0000   1.0000   1.0000   1.0000   1.0000   1.0000
     1.0000   1.0000   1.0000   1.0000   1.0000   1.0000   1.0000   1.0000
     1.0000   1.0000   1.0000   1.0000   1.0000   1.0000   1.0000   1.0000
     1.0000   1.0000   1.0000   1.0000   1.0000   1.0000   1.0000   1.0000
     1.0000   1.0000   1.0000   1.0000   1.0000   1.0000   1.0000   1.0000
     1.0000   1.0000   1.0000   1.0000   1.0000   1.0000   1.0000   1.0000
     1.0000   1.0000   1.0000   1.0000   1.0000   1.0000   1.0000   1.0000
     1.0000   1.0000   1.0000   1.0000   1.0000   1.0000   1.0000   1.0000
     1.0000   1.0000   1.0000   1.0000   1.0000   1.0000   1.0000   1.0000
     1.0000   1.0000   1.0000   1.0000   1.0000   1.0000   1.0000   1.0000
     1.0000   1.0000   1.0000   1.0000   1.0000   1.0000   1.0000   1.0000
     1.0000   1.0000   1.0000   1.0000   1.0000   1.0000   1.0000   1.0000
     1.0000   1.0000   1.0000   1.0000   1.0000   1.0000   1.0000   1.0000
     1.0000   1.0000   1.0000   1.0000   1.0000   1.0000   1.0000   1.0000
     1.0000   1.0000   1.0000   1.0000   1.0000   1.0000   1.0000   1.0000
     1.0000   1.0000   1.0000   1.0000   1.0000   1.0000   1.0000   1.0000
     1.0000   1.0000   1.0000   1.0000   1.0000   1.0000   1.0000   1.0000
     1.0000   1.0000   1.0000   1.0000   1.0000   1.0000   1.0000   1.0000
     1.0000   1.0000   1.0000   1.0000   1.0000   1.0000   1.0000   1.0000
     1.0000   1.0000   1.0000   1.0000   1.0000   1.0000   1.0000   1.0000
     1.0000   1.0000   1.0000   1.0000   1.0000   1.0000   1.0000   1.0000
     1.0000   1.0000   1.0000   1.0000   1.0000   1.0000   1.0000   1.0000
     1.0000   1.0000   1.0000   1.0000   1.0000   1.0000   1.0000   1.0000
     1.0000   1.0000   1.0000   1.0000   1.0000   1.0000   1.0000   1.0000
     1.0000   1.0000   1.0000   1.0000   1.0000   1.0000   1.0000   1.0000
     1.0000   1.0000   1.0000   1.0000   1.0000   1.0000   1.0000   1.0000
     1.0000   1.0000   1.0000   1.0000   1.0000   1.0000   1.0000   1.0000
     1.0000   1.0000   1.0000   1.0000   1.0000   1.0000   1.0000   1.0000
     1.0000   1.0000   1.0000   1.0000   1.0001   1.0001   1.0001   1.0001
     1.0001   1.0001   1.0001   1.0001   1.0001   1.0001   1.0001   1.0001
     1.0002   1.0002   1.0002   1.0002   1.0002   1.0002   1.0003   1.0003
     1.0004   1.0004   1.0004   1.0004   1.0005   1.0005   1.0005   1.0006
     1.0006   1.0006   1.0006   1.0006   1.0007   1.0008   1.0008   1.0008
     1.0009   1.0010   1.0010   1.0010   1.0011   1.0012   1.0013   1.0014
     1.0014   1.0015   1.0016   1.0017   1.0018   1.0019   1.0020   1.0021
     1.0021   1.0022   1.0022   1.0023   1.0024   1.0026   1.0027   1.0028
     1.0029   1.0033   1.0034   1.0039   1.0042   1.0045   1.0047   1.0050
     1.0052   1.0056   1.0060   1.0061   1.0071   1.0075   1.0078   1.0087
     1.0107   1.0111   1.0131   1.0140   1.0150   1.0153   1.0206   1.0213
     1.0230   1.0256   1.0263   1.0266   1.0310   1.0320   1.0321   1.0369
     1.0372   1.0382   1.0393   1.0412   1.0421   1.0442   1.0456   1.0596
     1.0638   1.0713   1.0715   1.0735   1.0748   1.0751   1.0772   1.0805
     1.0820   1.0832   1.0833   1.0831   1.0820   1.0808   1.0778   1.0758
     1.0725   1.0583   1.0534   1.0510   1.0447   1.0184   1.0043   1.0007
     0.9936   0.9765   0.9666   0.9165   0.8841   0.8765   0.8681   0.8432
     0.8291   0.7716   0.7531   0.7431   0.4848   0.4455   0.3565   0.1089
     0.0848   0.0711   0.0372   0.0331   0.0257   0.0220   0.0075   0.0049
     0.0043   0.0035   0.0023   0.0010   0.0009   0.0007   0.0007   0.0005
     0.0004   0.0002   0.0001   0.0001   0.0001   0.0001   0.0001   0.0001
     0.0000   0.0000   0.0000   0.0000   0.0000   0.0000   0.0000   0.0000
     0.0000   0.0000   0.0000   0.0000   0.0000   0.0000   0.0000   0.0000
     0.0000   0.0000   0.0000   0.0000   0.0000   0.0000   0.0000   0.0000
     0.0000   0.0000   0.0000   0.0000   0.0000   0.0000   0.0000   0.0000
     0.0000   0.0000   0.0000   0.0000   0.0000   0.0000   0.0000   0.0000
     0.0000   0.0000   0.0000   0.0000   0.0000   0.0000   0.0000   0.0000
     0.0000   0.0000   0.0000   0.0000   0.0000   0.0000   0.0000   0.0000
     0.0000   0.0000   0.0000   0.0000   0.0000   0.0000

          k = 0.0000 0.0000-0.4696 (141864 PWs)   bands (ev):

    -5.8675  -5.8633  -5.4563  -5.4350  -5.4040  -5.4016  -5.3854  -5.3668
    -5.3603  -5.3282  -5.0785  -5.0047  -4.9964  -4.9845  -4.9731  -4.9612
    -4.9469  -4.9140  -4.8595  -4.8362  -4.6659  -4.6414  -4.6332  -4.6209
    -4.5416  -4.5207  -4.5009  -4.4744  -4.3218  -4.2944  -4.2837  -4.2761
    -4.2410  -4.2198  -4.0914  -4.0639  -4.0395  -4.0336  -4.0272  -4.0065
    -3.9875  -3.9642  -3.9447  -3.9012  -3.7966  -3.7729  -3.7622  -3.7591
    -3.7563  -3.7437  -3.7302  -3.7144  -3.6961  -3.6823  -3.6775  -3.6442
    -3.6301  -3.6221  -3.6169  -3.5984  -3.5670  -3.5534  -3.5465  -3.5259
    -3.5103  -3.5066  -3.4723  -3.4565  -3.4447  -3.4306  -3.3658  -3.3273
    -3.2827  -3.2773  -3.2600  -3.2468  -3.2424  -3.2302  -3.2145  -3.2068
    -3.1907  -3.1814  -3.1752  -3.1535  -3.1381  -3.1170  -3.1084  -3.0324
    -2.9637  -2.9513  -2.9338  -2.8960  -2.8903  -2.7340  -2.5062  -2.5020
    -2.4427  -2.4144  -2.2585  -2.2500  -2.2195  -2.1915  -1.9933  -1.9758
    -1.9299  -1.9174  -1.9157  -1.8812  -1.7787  -1.7593  -1.7461  -1.7088
    -1.6355  -1.6151  -1.4873  -1.4757  -1.4243  -1.4052  -1.3351  -1.3284
    -1.3096  -1.2879  -1.2186  -1.1629  -1.1394  -1.1314  -1.1282  -1.1072
    -1.1041  -1.0979  -1.0867  -1.0783  -1.0429  -1.0312  -1.0214  -1.0128
    -1.0096  -1.0034  -0.9929  -0.9822  -0.9784  -0.9673  -0.9603  -0.9550
    -0.9425  -0.9280  -0.8747  -0.7050  -0.5313  -0.4994  -0.4175  -0.4029
    -0.3943  -0.3851  -0.3806  -0.3741  -0.3707  -0.3628  -0.3535  -0.3508
    -0.3466  -0.3443  -0.3374  -0.3294  -0.3245  -0.3119  -0.2972  -0.2844
    -0.2740  -0.2602  -0.2513  -0.2446  -0.2323  -0.2250  -0.2128  -0.2112
    -0.1618  -0.0952  -0.0513   0.3020   0.5470   0.5931   0.5967   0.6151
     0.6250   0.6475   0.6599   0.7945   0.8526   0.9222   0.9575   0.9716
     0.9769   0.9810   0.9947   1.0842   1.1159   1.1199   1.1809   1.2199
     1.2335   1.3391   1.5311   1.5469   1.5871   1.5904   1.5989   1.6159
     1.6451   1.6698   1.6803   1.6955   1.7037   1.7121   1.7214   1.7300
     1.7362   1.7417   1.7581   1.7623   1.7701   1.7965   1.7997   1.8097
     1.8143   1.8331   1.8372   1.8441   1.8755   1.8912   1.9546   1.9856
     2.0768   2.1004   2.1211   2.1994   2.2312   2.2352   2.2523   2.2601
     2.2682   2.2856   2.2926   2.3069   2.3218   2.3286   2.3510   2.3584
     2.3647   2.3705   2.3817   2.4001   2.4236   2.4403   2.4627   2.4996
     2.5031   2.5217   2.5245   2.5427   2.5441   2.5689   2.6096   2.6138
     2.6582   2.6672   2.6778   2.6868   2.6908   2.7051   2.7293   2.7376
     2.7484   2.7525   2.7682   2.7778   2.7893   2.7961   2.8138   2.8191
     2.8267   2.8287   2.8310   2.8403   2.8459   2.8536   2.8576   2.8621
     2.8676   2.8758   2.8778   2.8896   2.9010   2.9121   2.9220   2.9279
     2.9373   2.9463   2.9617   2.9666   2.9945   3.0136   3.0231   3.0461
     3.0640   3.1088   3.1283   3.1415   3.1508   3.2086   3.2555   3.2718
     3.2804   3.2933   3.3241   3.3366   3.3500   3.3625   3.3937   3.4143
     3.4183   3.4353   3.4392   3.4489   3.4532   3.4674   3.4745   3.4966
     3.5070   3.5178   3.5186   3.5389   3.5481   3.5621   3.5731   3.5920
     3.6120   3.6194   3.6310   3.6324   3.6700   3.6736   3.6802   3.6919
     3.7087   3.7140   3.7186   3.7428   3.7497   3.7633   3.7726   3.7764
     3.7854   3.7919   3.7985   3.8091   3.8110   3.8274   3.8323   3.8344
     3.8427   3.8465   3.8539   3.8663   3.8702   3.8880   3.8941   3.9089
     3.9117   3.9256   3.9323   3.9445   3.9586   3.9951   3.9999   4.0149
     4.0284   4.0559   4.0663   4.0909   4.1056   4.1317   4.1344   4.1589
     4.1670   4.1774   4.2133   4.2277   4.2397   4.2507   4.2545   4.2580
     4.2656   4.2770   4.2919   4.2943   4.3191   4.3254   4.3334   4.3395
     4.3574   4.3907   4.3953   4.4557   4.5301   4.5521   4.5613   4.5787
     4.6894   4.7039   4.7149   4.7376   4.7553   4.7707   4.7911   4.8148
     4.8844   4.9069   4.9706   4.9962   5.0249   5.0457   5.1806   5.2048
     5.2237   5.2455   5.3335   5.3953   5.4162   5.4180   5.5834   5.6226
     6.4690   6.4868   6.5062   6.5170   6.5944   6.6376   6.6926   6.7162
     6.7621   6.7791   6.7860   6.8123   6.8241   6.8530   6.9534   7.0198
     7.0273   7.0517   7.0666   7.0773   7.0878   7.0943   7.1141   7.1423
     7.1465   7.1827   7.1930   7.2272   7.2748   7.3197   7.3215   7.3270
     7.3891   7.3974   7.4371   7.4557   7.4645   7.4701   7.4754   7.4817
     7.4853   7.4983   7.5081   7.5351   7.5454   7.5508   7.5610   7.5773
     7.5903   7.6189   7.6205   7.6371   7.6442   7.6546   7.6623   7.6663
     7.6744   7.6886   7.7112   7.7492   7.7533   7.7639   7.7670   7.7907
     7.8140   7.8284   7.8362   7.8436   7.8524   7.8603   7.8712   7.8791
     7.8827   7.8985   7.9051   7.9157   7.9268   7.9276   7.9403   7.9430
     7.9546   7.9586   7.9626   7.9689   7.9754   7.9790

     occupation numbers 
     1.0000   1.0000   1.0000   1.0000   1.0000   1.0000   1.0000   1.0000
     1.0000   1.0000   1.0000   1.0000   1.0000   1.0000   1.0000   1.0000
     1.0000   1.0000   1.0000   1.0000   1.0000   1.0000   1.0000   1.0000
     1.0000   1.0000   1.0000   1.0000   1.0000   1.0000   1.0000   1.0000
     1.0000   1.0000   1.0000   1.0000   1.0000   1.0000   1.0000   1.0000
     1.0000   1.0000   1.0000   1.0000   1.0000   1.0000   1.0000   1.0000
     1.0000   1.0000   1.0000   1.0000   1.0000   1.0000   1.0000   1.0000
     1.0000   1.0000   1.0000   1.0000   1.0000   1.0000   1.0000   1.0000
     1.0000   1.0000   1.0000   1.0000   1.0000   1.0000   1.0000   1.0000
     1.0000   1.0000   1.0000   1.0000   1.0000   1.0000   1.0000   1.0000
     1.0000   1.0000   1.0000   1.0000   1.0000   1.0000   1.0000   1.0000
     1.0000   1.0000   1.0000   1.0000   1.0000   1.0000   1.0000   1.0000
     1.0000   1.0000   1.0000   1.0000   1.0000   1.0000   1.0000   1.0000
     1.0000   1.0000   1.0000   1.0000   1.0000   1.0000   1.0000   1.0000
     1.0000   1.0000   1.0000   1.0000   1.0000   1.0000   1.0000   1.0000
     1.0000   1.0000   1.0000   1.0000   1.0000   1.0000   1.0000   1.0000
     1.0000   1.0000   1.0000   1.0000   1.0000   1.0000   1.0000   1.0000
     1.0000   1.0000   1.0000   1.0000   1.0000   1.0000   1.0000   1.0000
     1.0000   1.0000   1.0000   1.0000   1.0000   1.0000   1.0000   1.0000
     1.0000   1.0000   1.0000   1.0000   1.0000   1.0000   1.0000   1.0000
     1.0000   1.0000   1.0000   1.0000   1.0000   1.0000   1.0000   1.0000
     1.0000   1.0000   1.0000   1.0000   1.0000   1.0000   1.0000   1.0000
     1.0000   1.0000   1.0000   1.0000   1.0000   1.0000   1.0000   1.0000
     1.0000   1.0000   1.0000   1.0000   1.0000   1.0000   1.0000   1.0000
     1.0000   1.0000   1.0000   1.0000   1.0000   1.0000   1.0000   1.0000
     1.0000   1.0000   1.0000   1.0000   1.0000   1.0000   1.0000   1.0000
     1.0000   1.0000   1.0000   1.0000   1.0000   1.0000   1.0000   1.0000
     1.0000   1.0000   1.0000   1.0000   1.0000   1.0000   1.0000   1.0000
     1.0000   1.0000   1.0000   1.0000   1.0000   1.0000   1.0000   1.0000
     1.0000   1.0000   1.0000   1.0000   1.0000   1.0000   1.0000   1.0000
     1.0000   1.0000   1.0000   1.0000   1.0000   1.0000   1.0000   1.0000
     1.0000   1.0000   1.0000   1.0000   1.0000   1.0000   1.0000   1.0000
     1.0000   1.0000   1.0000   1.0000   1.0000   1.0000   1.0000   1.0000
     1.0000   1.0000   1.0000   1.0000   1.0000   1.0000   1.0000   1.0000
     1.0000   1.0000   1.0000   1.0000   1.0000   1.0000   1.0000   1.0000
     1.0000   1.0000   1.0000   1.0000   1.0000   1.0000   1.0000   1.0000
     1.0000   1.0000   1.0000   1.0000   1.0000   1.0000   1.0000   1.0000
     1.0000   1.0000   1.0000   1.0000   1.0000   1.0000   1.0000   1.0000
     1.0000   1.0001   1.0001   1.0001   1.0001   1.0002   1.0002   1.0002
     1.0003   1.0003   1.0004   1.0004   1.0004   1.0005   1.0006   1.0007
     1.0007   1.0008   1.0008   1.0009   1.0009   1.0010   1.0011   1.0012
     1.0013   1.0014   1.0014   1.0016   1.0017   1.0019   1.0020   1.0023
     1.0026   1.0027   1.0029   1.0029   1.0036   1.0037   1.0039   1.0041
     1.0045   1.0047   1.0048   1.0055   1.0057   1.0062   1.0065   1.0066
     1.0069   1.0072   1.0074   1.0078   1.0079   1.0086   1.0088   1.0089
     1.0093   1.0095   1.0098   1.0105   1.0107   1.0116   1.0120   1.0128
     1.0130   1.0139   1.0143   1.0151   1.0161   1.0189   1.0193   1.0205
     1.0217   1.0243   1.0253   1.0278   1.0293   1.0322   1.0325   1.0354
     1.0364   1.0377   1.0423   1.0441   1.0458   1.0472   1.0478   1.0482
     1.0493   1.0508   1.0529   1.0532   1.0566   1.0575   1.0586   1.0594
     1.0619   1.0663   1.0669   1.0741   1.0808   1.0820   1.0824   1.0830
     1.0790   1.0774   1.0759   1.0723   1.0689   1.0655   1.0604   1.0536
     1.0274   1.0169   0.9818   0.9654   0.9455   0.9301   0.8124   0.7884
     0.7692   0.7467   0.6518   0.5834   0.5603   0.5583   0.3833   0.3455
     0.0084   0.0075   0.0066   0.0062   0.0038   0.0028   0.0019   0.0016
     0.0012   0.0010   0.0010   0.0008   0.0007   0.0006   0.0003   0.0002
     0.0001   0.0001   0.0001   0.0001   0.0001   0.0001   0.0001   0.0001
     0.0001   0.0000   0.0000   0.0000   0.0000   0.0000   0.0000   0.0000
     0.0000   0.0000   0.0000   0.0000   0.0000   0.0000   0.0000   0.0000
     0.0000   0.0000   0.0000   0.0000   0.0000   0.0000   0.0000   0.0000
     0.0000   0.0000   0.0000   0.0000   0.0000   0.0000   0.0000   0.0000
     0.0000   0.0000   0.0000   0.0000   0.0000   0.0000   0.0000   0.0000
     0.0000   0.0000   0.0000   0.0000   0.0000   0.0000   0.0000   0.0000
     0.0000   0.0000   0.0000   0.0000   0.0000   0.0000   0.0000   0.0000
     0.0000   0.0000   0.0000   0.0000   0.0000   0.0000

          k = 0.0000-0.5053 0.0236 (141748 PWs)   bands (ev):

    -5.8598  -5.8412  -5.4976  -5.4444  -5.4211  -5.4126  -5.3923  -5.3794
    -5.3607  -5.3485  -5.0664  -5.0216  -5.0120  -4.9992  -4.9918  -4.9649
    -4.9134  -4.9017  -4.8884  -4.8403  -4.5877  -4.5830  -4.5385  -4.5314
    -4.4364  -4.4286  -4.4140  -4.4112  -4.2853  -4.2487  -4.2409  -4.2387
    -4.2186  -4.2099  -4.1893  -4.1699  -4.1444  -4.1068  -4.0612  -4.0260
    -3.9901  -3.9742  -3.9701  -3.9518  -3.9092  -3.8967  -3.8712  -3.8638
    -3.8388  -3.8149  -3.7856  -3.7679  -3.7574  -3.7556  -3.7242  -3.7049
    -3.6778  -3.6698  -3.6666  -3.6463  -3.6233  -3.6099  -3.5837  -3.5769
    -3.5637  -3.5536  -3.5453  -3.4730  -3.4287  -3.4055  -3.2938  -3.2831
    -3.2756  -3.2684  -3.2357  -3.2231  -3.1757  -3.1523  -3.1370  -3.1252
    -3.1195  -3.0850  -3.0489  -2.9881  -2.9120  -2.9043  -2.8961  -2.8483
    -2.8464  -2.8020  -2.7375  -2.7194  -2.7022  -2.6436  -2.5397  -2.5190
    -2.4509  -2.4329  -2.3705  -2.3493  -2.2909  -2.2546  -2.1739  -2.1675
    -2.1293  -2.1081  -2.0880  -2.0454  -2.0071  -1.9548  -1.7899  -1.7756
    -1.7693  -1.7556  -1.6890  -1.6792  -1.6433  -1.5746  -1.4422  -1.4234
    -1.3105  -1.2906  -1.1594  -1.1045  -1.0636  -1.0246  -1.0132  -1.0097
    -0.9825  -0.9658  -0.9656  -0.9516  -0.9390  -0.9282  -0.9260  -0.9160
    -0.9109  -0.8990  -0.8793  -0.8670  -0.8449  -0.8386  -0.8225  -0.7509
    -0.7040  -0.6799  -0.6616  -0.6329  -0.6197  -0.5764  -0.5508  -0.5206
    -0.5025  -0.4908  -0.4482  -0.4038  -0.3979  -0.3721  -0.3592  -0.3571
    -0.3465  -0.3437  -0.3373  -0.3301  -0.3241  -0.3176  -0.2909  -0.2835
    -0.2545  -0.2448  -0.2144  -0.1983  -0.1940  -0.1455  -0.1363  -0.1275
    -0.1150  -0.1121  -0.0542   0.1684   0.1998   0.2647   0.2906   0.4255
     0.4857   0.5452   0.5621   0.6785   0.8390   0.8444   0.9218   0.9715
     1.0133   1.0162   1.0670   1.1278   1.1810   1.1873   1.2618   1.2857
     1.3202   1.3689   1.4798   1.5261   1.5439   1.5525   1.5544   1.5728
     1.5839   1.6056   1.6331   1.6620   1.6734   1.6979   1.7223   1.7529
     1.7775   1.8053   1.8451   1.8482   1.8609   1.8664   1.8978   1.9031
     1.9236   1.9606   1.9760   1.9805   2.0109   2.0218   2.0336   2.0529
     2.0664   2.0708   2.0744   2.0809   2.0839   2.1039   2.1598   2.1672
     2.2564   2.2961   2.3128   2.3511   2.3652   2.3830   2.4379   2.4625
     2.4795   2.4968   2.5142   2.5278   2.5374   2.5423   2.5556   2.5587
     2.5738   2.5835   2.6085   2.6153   2.6308   2.6512   2.6544   2.6632
     2.6700   2.6778   2.6807   2.6853   2.6905   2.6965   2.7015   2.7087
     2.7121   2.7184   2.7202   2.7275   2.7298   2.7363   2.7412   2.7434
     2.7456   2.7530   2.7564   2.7628   2.7733   2.7754   2.7825   2.7839
     2.7907   2.8031   2.8165   2.8291   2.8337   2.8755   2.8860   2.8928
     2.9131   2.9401   2.9733   2.9929   3.0188   3.0301   3.0544   3.0697
     3.0977   3.1040   3.1169   3.1239   3.1312   3.1442   3.1472   3.1537
     3.1635   3.2058   3.2174   3.2486   3.2820   3.2907   3.3093   3.3239
     3.3404   3.3629   3.3982   3.4022   3.4149   3.4228   3.4336   3.4622
     3.4658   3.4727   3.4863   3.5021   3.5094   3.5301   3.5376   3.5452
     3.5571   3.5890   3.6003   3.6118   3.6308   3.6443   3.6496   3.6592
     3.6694   3.6759   3.6803   3.6940   3.6996   3.7068   3.7142   3.7260
     3.7321   3.7665   3.7999   3.8127   3.8289   3.8332   3.8525   3.8680
     3.8749   3.8780   3.8955   3.9254   3.9408   3.9688   3.9746   3.9804
     3.9969   4.0027   4.0105   4.0168   4.0318   4.0543   4.0712   4.0876
     4.0997   4.1251   4.1422   4.1527   4.1708   4.1891   4.2038   4.2173
     4.2331   4.2357   4.2512   4.2592   4.2833   4.2969   4.3260   4.3347
     4.3495   4.3640   4.3780   4.3845   4.3974   4.4242   4.4452   4.4702
     4.5094   4.5152   4.5260   4.5453   4.5898   4.6083   4.6208   4.6293
     4.6450   4.6612   4.7816   4.8078   4.8329   4.8404   4.8899   4.8933
     4.8976   4.9148   4.9185   4.9259   4.9362   4.9622   4.9746   5.0284
     5.0301   5.0397   5.0543   5.0652   5.2277   5.2550   5.4111   5.4502
     6.0259   6.0652   6.5699   6.5825   6.6077   6.6507   6.7476   6.7986
     6.8014   6.8300   6.8427   6.8486   6.8610   6.8777   6.8940   6.9104
     6.9307   6.9818   7.0354   7.0915   7.1378   7.1674   7.1851   7.2144
     7.2335   7.2600   7.2771   7.2859   7.2954   7.3109   7.3263   7.3316
     7.3392   7.3770   7.3992   7.4140   7.4252   7.4364   7.4518   7.4598
     7.4823   7.4989   7.5042   7.5266   7.5646   7.5667   7.5876   7.5982
     7.6192   7.6337   7.6398   7.6535   7.6966   7.7076   7.7198   7.7286
     7.7337   7.7414   7.7471   7.7556   7.7688   7.7742   7.7776   7.7908
     7.8245   7.8455   7.8697   7.8780   7.8935   7.9064   7.9321   7.9432
     7.9478   7.9549   7.9702   7.9805   7.9869   8.0023   8.0062   8.0206
     8.0330   8.0488   8.0574   8.0668   8.0758   8.0955

     occupation numbers 
     1.0000   1.0000   1.0000   1.0000   1.0000   1.0000   1.0000   1.0000
     1.0000   1.0000   1.0000   1.0000   1.0000   1.0000   1.0000   1.0000
     1.0000   1.0000   1.0000   1.0000   1.0000   1.0000   1.0000   1.0000
     1.0000   1.0000   1.0000   1.0000   1.0000   1.0000   1.0000   1.0000
     1.0000   1.0000   1.0000   1.0000   1.0000   1.0000   1.0000   1.0000
     1.0000   1.0000   1.0000   1.0000   1.0000   1.0000   1.0000   1.0000
     1.0000   1.0000   1.0000   1.0000   1.0000   1.0000   1.0000   1.0000
     1.0000   1.0000   1.0000   1.0000   1.0000   1.0000   1.0000   1.0000
     1.0000   1.0000   1.0000   1.0000   1.0000   1.0000   1.0000   1.0000
     1.0000   1.0000   1.0000   1.0000   1.0000   1.0000   1.0000   1.0000
     1.0000   1.0000   1.0000   1.0000   1.0000   1.0000   1.0000   1.0000
     1.0000   1.0000   1.0000   1.0000   1.0000   1.0000   1.0000   1.0000
     1.0000   1.0000   1.0000   1.0000   1.0000   1.0000   1.0000   1.0000
     1.0000   1.0000   1.0000   1.0000   1.0000   1.0000   1.0000   1.0000
     1.0000   1.0000   1.0000   1.0000   1.0000   1.0000   1.0000   1.0000
     1.0000   1.0000   1.0000   1.0000   1.0000   1.0000   1.0000   1.0000
     1.0000   1.0000   1.0000   1.0000   1.0000   1.0000   1.0000   1.0000
     1.0000   1.0000   1.0000   1.0000   1.0000   1.0000   1.0000   1.0000
     1.0000   1.0000   1.0000   1.0000   1.0000   1.0000   1.0000   1.0000
     1.0000   1.0000   1.0000   1.0000   1.0000   1.0000   1.0000   1.0000
     1.0000   1.0000   1.0000   1.0000   1.0000   1.0000   1.0000   1.0000
     1.0000   1.0000   1.0000   1.0000   1.0000   1.0000   1.0000   1.0000
     1.0000   1.0000   1.0000   1.0000   1.0000   1.0000   1.0000   1.0000
     1.0000   1.0000   1.0000   1.0000   1.0000   1.0000   1.0000   1.0000
     1.0000   1.0000   1.0000   1.0000   1.0000   1.0000   1.0000   1.0000
     1.0000   1.0000   1.0000   1.0000   1.0000   1.0000   1.0000   1.0000
     1.0000   1.0000   1.0000   1.0000   1.0000   1.0000   1.0000   1.0000
     1.0000   1.0000   1.0000   1.0000   1.0000   1.0000   1.0000   1.0000
     1.0000   1.0000   1.0000   1.0000   1.0000   1.0000   1.0000   1.0000
     1.0000   1.0000   1.0000   1.0000   1.0000   1.0000   1.0000   1.0000
     1.0000   1.0000   1.0000   1.0000   1.0000   1.0000   1.0000   1.0000
     1.0000   1.0000   1.0000   1.0000   1.0000   1.0000   1.0000   1.0000
     1.0000   1.0000   1.0000   1.0000   1.0000   1.0000   1.0000   1.0000
     1.0000   1.0000   1.0000   1.0000   1.0000   1.0000   1.0000   1.0000
     1.0000   1.0000   1.0000   1.0000   1.0000   1.0000   1.0000   1.0000
     1.0000   1.0000   1.0000   1.0000   1.0000   1.0000   1.0000   1.0000
     1.0000   1.0000   1.0000   1.0000   1.0000   1.0000   1.0000   1.0000
     1.0000   1.0000   1.0000   1.0000   1.0000   1.0000   1.0000   1.0000
     1.0001   1.0001   1.0001   1.0001   1.0001   1.0001   1.0001   1.0001
     1.0001   1.0001   1.0002   1.0002   1.0003   1.0003   1.0003   1.0004
     1.0004   1.0005   1.0006   1.0006   1.0007   1.0007   1.0008   1.0010
     1.0010   1.0010   1.0011   1.0013   1.0013   1.0015   1.0016   1.0017
     1.0018   1.0022   1.0024   1.0026   1.0029   1.0031   1.0032   1.0034
     1.0036   1.0038   1.0039   1.0042   1.0043   1.0045   1.0047   1.0050
     1.0052   1.0063   1.0075   1.0080   1.0087   1.0089   1.0098   1.0106
     1.0109   1.0111   1.0121   1.0139   1.0149   1.0169   1.0173   1.0177
     1.0190   1.0195   1.0202   1.0207   1.0220   1.0241   1.0258   1.0274
     1.0287   1.0315   1.0335   1.0347   1.0369   1.0392   1.0410   1.0428
     1.0449   1.0452   1.0473   1.0484   1.0517   1.0536   1.0576   1.0588
     1.0608   1.0628   1.0647   1.0655   1.0672   1.0705   1.0730   1.0757
     1.0792   1.0797   1.0805   1.0817   1.0832   1.0833   1.0832   1.0830
     1.0824   1.0815   1.0629   1.0557   1.0476   1.0450   1.0249   1.0234
     1.0214   1.0130   1.0111   1.0073   1.0017   0.9869   0.9793   0.9430
     0.9418   0.9347   0.9235   0.9150   0.7651   0.7366   0.5660   0.5228
     0.0841   0.0708   0.0044   0.0041   0.0034   0.0026   0.0013   0.0009
     0.0009   0.0007   0.0006   0.0006   0.0005   0.0005   0.0004   0.0004
     0.0003   0.0002   0.0001   0.0001   0.0001   0.0000   0.0000   0.0000
     0.0000   0.0000   0.0000   0.0000   0.0000   0.0000   0.0000   0.0000
     0.0000   0.0000   0.0000   0.0000   0.0000   0.0000   0.0000   0.0000
     0.0000   0.0000   0.0000   0.0000   0.0000   0.0000   0.0000   0.0000
     0.0000   0.0000   0.0000   0.0000   0.0000   0.0000   0.0000   0.0000
     0.0000   0.0000   0.0000   0.0000   0.0000   0.0000   0.0000   0.0000
     0.0000   0.0000   0.0000   0.0000   0.0000   0.0000   0.0000   0.0000
     0.0000   0.0000   0.0000   0.0000   0.0000   0.0000   0.0000   0.0000
     0.0000   0.0000   0.0000   0.0000   0.0000   0.0000

          k = 0.0000-0.5053-0.4460 (141774 PWs)   bands (ev):

    -5.7701  -5.7536  -5.7360  -5.7217  -5.3648  -5.3160  -5.2989  -5.2873
    -5.2800  -5.2667  -5.2365  -5.2059  -4.9788  -4.9243  -4.8809  -4.8680
    -4.8463  -4.8068  -4.7710  -4.7325  -4.5873  -4.5520  -4.5302  -4.5228
    -4.5019  -4.4826  -4.4644  -4.4556  -4.4354  -4.4259  -4.3964  -4.3805
    -4.3695  -4.3254  -4.2723  -4.2581  -4.1482  -4.1389  -4.0240  -3.9784
    -3.9661  -3.9655  -3.9581  -3.9512  -3.9384  -3.9365  -3.9343  -3.9301
    -3.9240  -3.8803  -3.8700  -3.8457  -3.8380  -3.7588  -3.6098  -3.5970
    -3.5037  -3.4896  -3.4846  -3.4789  -3.4586  -3.4488  -3.4453  -3.4381
    -3.4114  -3.4058  -3.3919  -3.3693  -3.3319  -3.2967  -3.2310  -3.2071
    -3.1942  -3.1823  -3.1678  -3.1610  -3.1266  -3.1150  -3.0978  -3.0963
    -3.0772  -3.0534  -3.0386  -2.9992  -2.9637  -2.9479  -2.9396  -2.9244
    -2.9197  -2.9091  -2.9040  -2.8772  -2.8636  -2.8565  -2.8364  -2.7428
    -2.6945  -2.6915  -2.6822  -2.6136  -2.5618  -2.4853  -2.4250  -2.3469
    -2.2200  -2.1704  -1.9898  -1.9556  -1.7213  -1.7044  -1.5826  -1.5564
    -1.2899  -1.2720  -1.2366  -1.2025  -1.1454  -1.1310  -1.1229  -1.1153
    -1.0941  -1.0914  -1.0897  -1.0792  -1.0762  -1.0698  -1.0480  -1.0115
    -0.9895  -0.9798  -0.9740  -0.9631  -0.9527  -0.9509  -0.9481  -0.9419
    -0.9387  -0.9250  -0.9098  -0.8860  -0.8791  -0.8734  -0.8672  -0.8627
    -0.8559  -0.8527  -0.8434  -0.8407  -0.8279  -0.8151  -0.8062  -0.7976
    -0.7800  -0.7557  -0.7371  -0.7191  -0.7020  -0.6815  -0.6781  -0.6539
    -0.6423  -0.6368  -0.6301  -0.6154  -0.5692  -0.5571  -0.5336  -0.0932
     0.1213   0.1858   0.2292   0.2368   0.2456   0.2497   0.2815   0.3002
     0.3073   0.3284   0.3516   0.3612   0.3733   0.3792   0.3859   0.3879
     0.3886   0.3968   0.4302   0.4433   0.4648   0.5166   0.5222   0.5856
     0.6390   0.6544   0.6864   1.0339   1.3605   1.4132   1.5265   1.5489
     1.5965   1.6349   1.6775   1.6936   1.7150   1.7359   1.7483   1.7636
     1.7734   1.7784   1.8107   1.8136   1.8206   1.8259   1.8286   1.8366
     1.8474   1.8581   1.8614   1.8655   1.8740   1.8766   1.8872   1.8921
     1.8986   1.9122   1.9137   1.9203   1.9303   1.9371   1.9389   1.9481
     1.9683   2.0061   2.0404   2.0641   2.0780   2.0900   2.0974   2.1119
     2.1301   2.1350   2.1417   2.1538   2.1797   2.1879   2.2058   2.2227
     2.2334   2.2518   2.2821   2.3054   2.3404   2.3700   2.4198   2.4466
     2.4544   2.4662   2.4776   2.4990   2.5148   2.5162   2.5461   2.5584
     2.5895   2.6303   2.6487   2.6617   2.6686   2.7058   2.7329   2.7352
     2.7412   2.7464   2.7653   2.7725   2.7835   2.7964   2.8031   2.8082
     2.8159   2.8327   2.8382   2.8434   2.8476   2.8559   2.8580   2.8608
     2.8640   2.8722   2.8959   2.9084   2.9164   2.9372   2.9757   2.9831
     3.0239   3.0555   3.0686   3.0750   3.0815   3.0982   3.1299   3.1525
     3.1725   3.1760   3.1871   3.1916   3.2024   3.2123   3.2212   3.2230
[...]
     atom   27 type  1   force =     0.00000202   -0.00000249    0.00000250
     atom   28 type  1   force =     0.00000573    0.00000112    0.00000759
     atom   29 type  1   force =     0.00000075    0.00000639    0.00000355
     atom   30 type  1   force =     0.00000189    0.00000837    0.00000506
     atom   31 type  1   force =    -0.00000093    0.00000048    0.00000779
     atom   32 type  1   force =     0.00000368    0.00000192    0.00000988
     atom   33 type  1   force =    -0.00000242    0.00000814    0.00000618
     atom   34 type  1   force =     0.00000047    0.00000947    0.00000283
     atom   35 type  1   force =     0.00000008    0.00000683    0.00000696
     atom   36 type  1   force =     0.00000330    0.00000357    0.00000084
     atom   37 type  1   force =    -0.00000224    0.00001064    0.00000049
     atom   38 type  1   force =     0.00000139    0.00001002   -0.00000396
     atom   39 type  1   force =    -0.00000190    0.00000390   -0.00000059
     atom   40 type  1   force =     0.00000011   -0.00000164   -0.00000776
     atom   41 type  1   force =    -0.00000256    0.00000684   -0.00000592
     atom   42 type  1   force =     0.00000067    0.00000363   -0.00000773
     atom   43 type  1   force =     0.00000146   -0.00000000   -0.00000733
     atom   44 type  1   force =     0.00000773   -0.00000626   -0.00001092
     atom   45 type  1   force =     0.00000021    0.00000589   -0.00000544
     atom   46 type  1   force =     0.00000387    0.00000334   -0.00000429
     atom   47 type  1   force =    -0.00000358   -0.00000408   -0.00000739
     atom   48 type  1   force =     0.00000027   -0.00000489   -0.00000157
     atom   49 type  1   force =    -0.00000286   -0.00000691    0.00000375
     atom   50 type  1   force =     0.00000445   -0.00000353    0.00000991
     atom   51 type  1   force =     0.00000468   -0.00000369    0.00000890
     atom   52 type  1   force =     0.00000715   -0.00000418    0.00000952
     atom   53 type  1   force =     0.00000456   -0.00000245    0.00001222
     atom   54 type  1   force =     0.00000575   -0.00000294    0.00000861
     atom   55 type  1   force =     0.00000420   -0.00000609    0.00000992
     atom   56 type  1   force =     0.00000580   -0.00000827    0.00000624
     atom   57 type  1   force =     0.00000240   -0.00000535    0.00000818
     atom   58 type  1   force =     0.00000439   -0.00000825    0.00000116
     atom   59 type  1   force =     0.00000596   -0.00000997    0.00000391
     atom   60 type  1   force =     0.00000381   -0.00001122   -0.00000445
     atom   61 type  1   force =     0.00000168   -0.00000505   -0.00000494
     atom   62 type  1   force =     0.00000596   -0.00001122   -0.00001254
     atom   63 type  1   force =    -0.00000332   -0.00000906   -0.00000127
     atom   64 type  1   force =    -0.00000390   -0.00000583   -0.00000869
     atom   65 type  1   force =    -0.00000650   -0.00000754   -0.00000987
     atom   66 type  1   force =    -0.00000372   -0.00000789   -0.00001005
     atom   67 type  1   force =    -0.00000104   -0.00001006   -0.00000959
     atom   68 type  1   force =     0.00000446   -0.00000622   -0.00000645
     atom   69 type  1   force =     0.00000256   -0.00000806   -0.00000576
     atom   70 type  1   force =     0.00000880   -0.00000650    0.00000318
     atom   71 type  1   force =    -0.00000969   -0.00000551   -0.00000709
     atom   72 type  1   force =    -0.00000314    0.00000129    0.00000371
     atom   73 type  1   force =     0.00000384   -0.00000236    0.00000789
     atom   74 type  1   force =     0.00000281   -0.00000143    0.00000558
     atom   75 type  1   force =    -0.00000090    0.00000239    0.00000330
     atom   76 type  1   force =     0.00000028    0.00000547    0.00000264
     atom   77 type  1   force =    -0.00000446   -0.00000630    0.00000511
     atom   78 type  1   force =    -0.00000298   -0.00000100    0.00000375
     atom   79 type  1   force =     0.00000282    0.00000042    0.00000270
     atom   80 type  1   force =     0.00000242    0.00000442    0.00000127
     atom   81 type  1   force =     0.00000184   -0.00000980   -0.00000048
     atom   82 type  1   force =     0.00000351   -0.00000347   -0.00000385
     atom   83 type  1   force =     0.00000006    0.00000013    0.00000108
     atom   84 type  1   force =     0.00000249    0.00000686    0.00000086
     atom   85 type  1   force =     0.00000264   -0.00000880   -0.00000354
     atom   86 type  1   force =     0.00000575   -0.00000190   -0.00000433
     atom   87 type  1   force =     0.00000046    0.00000361   -0.00000334
     atom   88 type  1   force =     0.00000320    0.00001184   -0.00000407
     atom   89 type  1   force =     0.00000408   -0.00000400   -0.00000778
     atom   90 type  1   force =     0.00000600    0.00000228   -0.00000254
     atom   91 type  1   force =     0.00000390    0.00000478   -0.00000477
     atom   92 type  1   force =     0.00000394    0.00001006   -0.00000431
     atom   93 type  1   force =     0.00000581   -0.00000567   -0.00000064
     atom   94 type  1   force =     0.00000114   -0.00000015    0.00000009
     atom   95 type  1   force =     0.00000041    0.00000867    0.00000065
     atom   96 type  1   force =     0.00000122    0.00000785    0.00000023
     atom   97 type  1   force =     0.00000227    0.00000512   -0.00000001
     atom   98 type  1   force =     0.00000224    0.00000547    0.00000221
     atom   99 type  1   force =     0.00000085    0.00000503   -0.00000067
     atom  100 type  1   force =    -0.00000233    0.00000066    0.00000149
     atom  101 type  1   force =    -0.00000036    0.00000488    0.00000297
     atom  102 type  1   force =     0.00000102    0.00000782    0.00000379
     atom  103 type  1   force =     0.00000170    0.00000494    0.00000569
     atom  104 type  1   force =     0.00000173    0.00000587    0.00000706
     atom  105 type  1   force =     0.00000060    0.00000861    0.00000314
     atom  106 type  1   force =     0.00000125    0.00001165    0.00000280
     atom  107 type  1   force =    -0.00000145    0.00000730    0.00000544
     atom  108 type  1   force =    -0.00000074    0.00000456    0.00000373
     atom  109 type  1   force =     0.00000109    0.00001112   -0.00000011
     atom  110 type  1   force =     0.00000174    0.00001123   -0.00000231
     atom  111 type  1   force =     0.00000075    0.00000650   -0.00000124
     atom  112 type  1   force =     0.00000392    0.00000226   -0.00000431
     atom  113 type  1   force =    -0.00000085    0.00001197   -0.00000331
     atom  114 type  1   force =     0.00000269    0.00001064   -0.00000614
     atom  115 type  1   force =     0.00000151    0.00000650   -0.00000441
     atom  116 type  1   force =     0.00000100    0.00000271   -0.00000749
     atom  117 type  1   force =     0.00000054    0.00000958   -0.00000350
     atom  118 type  1   force =     0.00000136    0.00000779   -0.00000414
     atom  119 type  1   force =     0.00000402    0.00000001   -0.00000713
     atom  120 type  1   force =     0.00000795   -0.00000032   -0.00000359
     atom  121 type  1   force =     0.00000590   -0.00000341    0.00000524
     atom  122 type  1   force =     0.00000431   -0.00000319    0.00000778
     atom  123 type  1   force =     0.00000048   -0.00000721    0.00000380
     atom  124 type  1   force =    -0.00000430   -0.00000524    0.00000419
     atom  125 type  1   force =    -0.00000405   -0.00000158    0.00000705
     atom  126 type  1   force =    -0.00000597   -0.00000479    0.00000795
     atom  127 type  1   force =     0.00000311   -0.00000552    0.00001093
     atom  128 type  1   force =     0.00000010   -0.00000823    0.00000369
     atom  129 type  1   force =     0.00000113   -0.00000045    0.00000568
     atom  130 type  1   force =     0.00000210   -0.00000641   -0.00000079
     atom  131 type  1   force =    -0.00000467   -0.00001011    0.00000450
     atom  132 type  1   force =    -0.00000089   -0.00000888    0.00000218
     atom  133 type  1   force =     0.00000012   -0.00000261   -0.00000026
     atom  134 type  1   force =     0.00000243   -0.00000752   -0.00000312
     atom  135 type  1   force =     0.00000286   -0.00001333   -0.00000697
     atom  136 type  1   force =     0.00000753   -0.00001128   -0.00000864
     atom  137 type  1   force =     0.00000683   -0.00000940   -0.00000932
     atom  138 type  1   force =     0.00001208   -0.00001117   -0.00000842
     atom  139 type  1   force =     0.00000671   -0.00001385   -0.00000591
     atom  140 type  1   force =     0.00000673   -0.00001025   -0.00000494
     atom  141 type  1   force =     0.00000504   -0.00000520   -0.00000630
     atom  142 type  1   force =     0.00000057   -0.00000681   -0.00000469
     atom  143 type  1   force =     0.00000742   -0.00000966   -0.00000134
     atom  144 type  1   force =     0.00000779   -0.00000531    0.00000461
     atom  145 type  1   force =    -0.00000411   -0.00000408    0.00000047
     atom  146 type  1   force =    -0.00000188    0.00000140    0.00000213
     atom  147 type  1   force =    -0.00000231    0.00000533   -0.00000329
     atom  148 type  1   force =     0.00000001    0.00000672    0.00000097
     atom  149 type  1   force =    -0.00000331    0.00000024    0.00000335
     atom  150 type  1   force =    -0.00000071    0.00000140    0.00000465
     atom  151 type  1   force =    -0.00000454    0.00000380    0.00000348
     atom  152 type  1   force =    -0.00000080    0.00000801    0.00000418
     atom  153 type  1   force =    -0.00000553   -0.00000488    0.00000657
     atom  154 type  1   force =    -0.00000162    0.00000032    0.00000438
     atom  155 type  1   force =    -0.00000287    0.00000571    0.00000638
     atom  156 type  1   force =    -0.00000113    0.00000830    0.00000279
     atom  157 type  1   force =    -0.00000328   -0.00000617    0.00000327
     atom  158 type  1   force =    -0.00000290    0.00000110   -0.00000222
     atom  159 type  1   force =     0.00000091    0.00000233   -0.00000029
     atom  160 type  1   force =     0.00000222    0.00000759   -0.00000258
     atom  161 type  1   force =     0.00000231   -0.00000801   -0.00000386
     atom  162 type  1   force =     0.00000262   -0.00000232   -0.00000521
     atom  163 type  1   force =    -0.00000147    0.00000342   -0.00000529
     atom  164 type  1   force =    -0.00000057    0.00000640   -0.00000581
     atom  165 type  1   force =    -0.00000652   -0.00000076   -0.00000717
     atom  166 type  1   force =    -0.00000585    0.00000696   -0.00000688
     atom  167 type  1   force =     0.00000037    0.00000345   -0.00000319
     atom  168 type  1   force =     0.00000110    0.00000603   -0.00000279
     atom  169 type  1   force =    -0.00000250    0.00000602    0.00000014
     atom  170 type  1   force =    -0.00000172    0.00000489    0.00000253
     atom  171 type  1   force =    -0.00000512   -0.00000076   -0.00000042
     atom  172 type  1   force =    -0.00000151   -0.00000246    0.00000520
     atom  173 type  1   force =    -0.00000317    0.00000624    0.00000509
     atom  174 type  1   force =    -0.00000057    0.00000643    0.00000624
     atom  175 type  1   force =    -0.00000361    0.00000134    0.00000534
     atom  176 type  1   force =    -0.00000264   -0.00000113    0.00000826
     atom  177 type  1   force =    -0.00000042    0.00000704    0.00000411
     atom  178 type  1   force =     0.00000104    0.00000813    0.00000316
     atom  179 type  1   force =    -0.00000198    0.00000202    0.00000778
     atom  180 type  1   force =     0.00000125   -0.00000025    0.00000440
     atom  181 type  1   force =    -0.00000136    0.00000775    0.00000133
     atom  182 type  1   force =    -0.00000068    0.00000638   -0.00000338
     atom  183 type  1   force =    -0.00000157    0.00000588    0.00000271
     atom  184 type  1   force =    -0.00000256    0.00000261   -0.00000237
     atom  185 type  1   force =     0.00000034    0.00000965   -0.00000477
     atom  186 type  1   force =    -0.00000105    0.00000757   -0.00000642
     atom  187 type  1   force =    -0.00000402    0.00000317   -0.00000636
     atom  188 type  1   force =    -0.00000562   -0.00000216   -0.00001031
     atom  189 type  1   force =    -0.00000248    0.00000641   -0.00000565
     atom  190 type  1   force =    -0.00000188    0.00000303   -0.00000431
     atom  191 type  1   force =    -0.00000316    0.00000455   -0.00000634
     atom  192 type  1   force =    -0.00000568    0.00000004   -0.00000587
     atom  193 type  1   force =    -0.00000519   -0.00000398   -0.00000244
     atom  194 type  1   force =    -0.00000599   -0.00000632    0.00000223
     atom  195 type  1   force =    -0.00000753   -0.00000499   -0.00000147
     atom  196 type  1   force =     0.00000039   -0.00000169    0.00000095
     atom  197 type  1   force =    -0.00000405   -0.00000468    0.00000716
     atom  198 type  1   force =     0.00000161   -0.00000727    0.00000998
     atom  199 type  1   force =    -0.00000664   -0.00000747    0.00000555
     atom  200 type  1   force =    -0.00000518   -0.00000683    0.00000769
     atom  201 type  1   force =    -0.00000574   -0.00000445    0.00000914
     atom  202 type  1   force =    -0.00000369   -0.00000656    0.00000834
     atom  203 type  1   force =    -0.00000329   -0.00000895    0.00000796
     atom  204 type  1   force =    -0.00000107   -0.00000666    0.00000635
     atom  205 type  1   force =    -0.00000454   -0.00000419    0.00000307
     atom  206 type  1   force =    -0.00000561   -0.00000711   -0.00000551
     atom  207 type  1   force =    -0.00000212   -0.00001113    0.00000308
     atom  208 type  1   force =    -0.00000059   -0.00000884   -0.00000165
     atom  209 type  1   force =    -0.00000298   -0.00000331   -0.00000487
     atom  210 type  1   force =    -0.00000532   -0.00000543   -0.00000815
     atom  211 type  1   force =    -0.00000897   -0.00000833   -0.00000581
     atom  212 type  1   force =    -0.00000755   -0.00000491   -0.00000755
     atom  213 type  1   force =    -0.00001016   -0.00000469   -0.00000878
     atom  214 type  1   force =    -0.00000689   -0.00000410   -0.00000450
     atom  215 type  1   force =    -0.00000257   -0.00000921   -0.00000758
     atom  216 type  2   force =    -0.00000056   -0.00000124    0.00000036
     atom  217 type  2   force =     0.00000081   -0.00000210   -0.00000081
     atom  218 type  2   force =    -0.00000138   -0.00000219    0.00000173
     atom  219 type  2   force =    -0.00000015   -0.00000101    0.00000027

     Total force =     0.058785     Total SCF correction =     0.000135


     Computing stress (Cartesian axis) and pressure

          total   stress  (Ry/bohr**3)                   (kbar)     P=  -32.18
  -0.00010266   0.00013947  -0.00013395        -15.10     20.52    -19.71
   0.00013947  -0.00004939  -0.00021857         20.52     -7.27    -32.15
  -0.00013395  -0.00021857  -0.00050424        -19.71    -32.15    -74.18

     kinetic stress (kbar)   2126.93     17.84    -18.14
                               17.84   2135.61    -29.71
                              -18.14    -29.71   2063.73

     local   stress (kbar)  -1099.08    -51.80     23.67
                              -51.80  -1049.70     66.17
                               23.67     66.17  -1409.31

     nonloc. stress (kbar)   2405.69      0.93     -4.12
                                0.93   2401.05     -6.45
                               -4.12     -6.45   2431.50

     hartree stress (kbar)    189.06     18.27     -6.84
                               18.27    182.48    -21.51
                               -6.84    -21.51    233.84

     exc-cor stress (kbar)   -753.87      0.03      0.18
                                0.03   -754.07      0.18
                                0.18      0.18   -752.59

     corecor stress (kbar)      0.00      0.00      0.00
                                0.00      0.00      0.00
                                0.00      0.00      0.00

     ewald   stress (kbar)  -2883.83     35.25    -14.45
                               35.25  -2922.63    -40.82
                              -14.45    -40.82  -2641.35

     hubbard stress (kbar)      0.00      0.00      0.00
                                0.00      0.00      0.00
                                0.00      0.00      0.00

     london  stress (kbar)      0.00      0.00      0.00
                                0.00      0.00      0.00
                                0.00      0.00      0.00

     DFT-D3  stress (kbar)      0.00      0.00      0.00
                                0.00      0.00      0.00
                                0.00      0.00      0.00

     XDM     stress (kbar)      0.00      0.00      0.00
                                0.00      0.00      0.00
                                0.00      0.00      0.00

     dft-nl  stress (kbar)      0.00      0.00      0.00
                                0.00      0.00      0.00
                                0.00      0.00      0.00

     TS-vdW  stress (kbar)      0.00      0.00      0.00
                                0.00      0.00      0.00
                                0.00      0.00      0.00



     Writing output data file vacancy_optimize4.save

     init_run     :    247.36s CPU    251.22s WALL (       1 calls)
     electrons    :   8778.49s CPU   8997.55s WALL (       1 calls)
     forces       :     89.04s CPU     89.48s WALL (       1 calls)
     stress       :    810.72s CPU    813.78s WALL (       1 calls)

     Called by init_run:
     wfcinit      :    233.92s CPU    237.70s WALL (       1 calls)
     wfcinit:atom :      0.77s CPU      1.63s WALL (       8 calls)
     wfcinit:wfcr :    221.91s CPU    223.90s WALL (       8 calls)
     potinit      :      5.48s CPU      5.50s WALL (       1 calls)

     Called by electrons:
     c_bands      :   8153.74s CPU   8352.19s WALL (      20 calls)
     sum_band     :    618.73s CPU    625.28s WALL (      20 calls)
     v_of_rho     :      5.06s CPU      5.12s WALL (      20 calls)
     v_h          :      0.29s CPU      0.30s WALL (      20 calls)
     v_xc         :      4.77s CPU      4.82s WALL (      20 calls)
     mix_rho      :      0.97s CPU      1.19s WALL (      20 calls)

     Called by c_bands:
     init_us_2    :     29.82s CPU     31.80s WALL (     344 calls)
     cegterg      :   8085.49s CPU   8234.57s WALL (     160 calls)

     Called by sum_band:

     Called by *egterg:
     h_psi        :   4475.23s CPU   4497.74s WALL (     810 calls)
     g_psi        :     12.94s CPU     12.95s WALL (     642 calls)
     cdiaghg      :   1241.95s CPU   1243.53s WALL (     794 calls)
     cegterg:over :   1045.14s CPU   1048.99s WALL (     642 calls)
     cegterg:upda :    649.10s CPU    654.89s WALL (     642 calls)
     cegterg:last :    390.95s CPU    394.06s WALL (     160 calls)

     Called by h_psi:
     h_psi:pot    :   4453.38s CPU   4473.48s WALL (     810 calls)
     h_psi:calbec :    890.94s CPU    897.36s WALL (     810 calls)
     vloc_psi     :   2696.76s CPU   2708.07s WALL (     810 calls)
     add_vuspsi   :    865.67s CPU    868.04s WALL (     810 calls)

     General routines
     calbec       :    994.03s CPU   1000.54s WALL (     850 calls)
     fft          :      2.81s CPU      2.83s WALL (     229 calls)
     fftw         :   2948.25s CPU   2960.33s WALL (  480672 calls)

     Parallel routines
     fft_scatt_xy :    398.28s CPU    399.62s WALL (  480901 calls)
     fft_scatt_yz :    538.98s CPU    541.44s WALL (  480901 calls)

     PWSCF        :     2h45m CPU        2h49m WALL


   This run was terminated on:  11:36:47   7Nov2020            

=------------------------------------------------------------------------------=
   JOB DONE.
=------------------------------------------------------------------------------=
