
     Program PWSCF v.6.2 (svn rev. 14038) starts on  7Nov2020 at  8:43:44 

     This program is part of the open-source Quantum ESPRESSO suite
     for quantum simulation of materials; please cite
         "P. Giannozzi et al., J. Phys.:Condens. Matter 21 395502 (2009);
         "P. Giannozzi et al., J. Phys.:Condens. Matter 29 465901 (2017);
          URL http://www.quantum-espresso.org", 
     in publications or presentations arising from this work. More details at
     http://www.quantum-espresso.org/quote

     Parallel version (MPI), running on     8 processors

     MPI processes distributed on     1 nodes
     R & G space division:  proc/nbgrp/npool/nimage =       8
     Waiting for input...
     Reading input from standard input
Warning: card &IONS ignored
Warning: card / ignored

     Current dimensions of program PWSCF are:
     Max number of different atomic species (ntypx) = 10
     Max number of k-points (npk) =  40000
     Max angular momentum in pseudopotentials (lmaxx) =  3

     Subspace diagonalization in iterative solution of the eigenvalue problem:
     a serial algorithm will be used


     Parallelization info
     --------------------
     sticks:   dense  smooth     PW     G-vecs:    dense   smooth      PW
     Min        1510    1510    397               129454   129454   17530
     Max        1511    1511    398               129456   129456   17533
     Sum       12087   12087   3179              1035645  1035645  140249



     bravais-lattice index     =            0
     lattice parameter (alat)  =      30.1582  a.u.
     unit-cell volume          =   28164.1586 (a.u.)^3
     number of atoms/cell      =          219
     number of atomic types    =            2
     number of electrons       =       864.00
     number of Kohn-Sham states=          518
     kinetic-energy cutoff     =      42.0000  Ry
     charge density cutoff     =     168.0000  Ry
     convergence threshold     =      1.0E-08
     mixing beta               =       0.3000
     number of iterations used =            8  plain     mixing
     Exchange-correlation      = SLA-PW-PBX-PBC ( 1  4  3  4 0 0)

     celldm(1)=  30.158192  celldm(2)=   0.000000  celldm(3)=   0.000000
     celldm(4)=   0.000000  celldm(5)=   0.000000  celldm(6)=   0.000000

     crystal axes: (cart. coord. in units of alat)
               a(1) = (   1.000000   0.000000   0.000000 )  
               a(2) = (   0.016282   0.993867   0.000000 )  
               a(3) = (   0.029710   0.004038   1.033125 )  

     reciprocal axes: (cart. coord. in units 2 pi/alat)
               b(1) = (  1.000000 -0.016383 -0.028693 )  
               b(2) = (  0.000000  1.006171 -0.003932 )  
               b(3) = (  0.000000  0.000000  0.967937 )  


     PseudoPot. # 1 for Si read from file:
     ./Si.pbe-hgh.UPF
     MD5 check sum: 9a9f0f6e09139bfdb36b03ff6bc35900
     Pseudo is Norm-conserving, Zval =  4.0
     Generated in analytical, separable form
     Using radial grid of 1141 points,  3 beta functions with: 
                l(1) =   0
                l(2) =   0
                l(3) =   1

     PseudoPot. # 2 for H  read from file:
     ./H.pbe-hgh.UPF
     MD5 check sum: 5f350582108a937bec95f27f5610ab08
     Pseudo is Norm-conserving, Zval =  1.0
     Generated in analytical, separable form
     Using radial grid of  929 points,  0 beta functions with: 

     atomic species   valence    mass     pseudopotential
        Si             4.00    28.08000     Si( 1.00)
        H              1.00     1.00784     H ( 1.00)

     No symmetry found


                                    s                        frac. trans.

      isym =  1     identity                                     

 cryst.   s( 1) = (     1          0          0      )
                  (     0          1          0      )
                  (     0          0          1      )

 cart.    s( 1) = (  1.0000000  0.0000000  0.0000000 )
                  (  0.0000000  1.0000000  0.0000000 )
                  (  0.0000000  0.0000000  1.0000000 )


   Cartesian axes

     site n.     atom                  positions (alat units)
         1           Si  tau(   1) = (   0.7904728   0.9137856   0.9444434  )
         2           Si  tau(   2) = (   0.0914667   0.0808269   0.0884390  )
         3           Si  tau(   3) = (   0.1703600   0.1665245   0.0015624  )
         4           Si  tau(   4) = (   0.2572114   0.2476871   0.0866241  )
         5           Si  tau(   5) = (   0.1753226   0.0008191   0.1760031  )
         6           Si  tau(   6) = (   0.2608700   0.0835284   0.2599383  )
         7           Si  tau(   7) = (   0.0080958   0.1652320   0.1713283  )
         8           Si  tau(   8) = (   0.0951936   0.2469854   0.2570053  )
         9           Si  tau(   9) = (   0.0108956   0.0015835   0.3457022  )
        10           Si  tau(  10) = (   0.0976519   0.0832236   0.4306560  )
        11           Si  tau(  11) = (   0.1798503   0.1677003   0.3456484  )
        12           Si  tau(  12) = (   0.2668135   0.2490973   0.4306746  )
        13           Si  tau(  13) = (   0.1821495   0.0021435   0.5174839  )
        14           Si  tau(  14) = (   0.2691887   0.0836516   0.6023056  )
        15           Si  tau(  15) = (   0.0181262   0.1680591   0.5173073  )
        16           Si  tau(  16) = (   0.1051217   0.2494691   0.6023510  )
        17           Si  tau(  17) = (   0.0199580   0.0027468   0.6887988  )
        18           Si  tau(  18) = (   0.1062634   0.0849083   0.7738363  )
        19           Si  tau(  19) = (   0.1897163   0.1684765   0.6892213  )
        20           Si  tau(  20) = (   0.2764585   0.2497373   0.7747424  )
        21           Si  tau(  21) = (   0.1919847   0.0074415   0.8617583  )
        22           Si  tau(  22) = (   0.2794468   0.0862240   0.9478868  )
        23           Si  tau(  23) = (   0.0282954   0.1673713   0.8636624  )
        24           Si  tau(  24) = (   0.1146970   0.2501901   0.9478145  )
        25           Si  tau(  25) = (   0.0060179   0.3319355   0.0007518  )
        26           Si  tau(  26) = (   0.0929276   0.4131911   0.0859710  )
        27           Si  tau(  27) = (   0.1754152   0.4971260   0.0007260  )
        28           Si  tau(  28) = (   0.2627231   0.5778135   0.0862873  )
        29           Si  tau(  29) = (   0.1775508   0.3324711   0.1731404  )
        30           Si  tau(  30) = (   0.2647473   0.4135124   0.2584496  )
        31           Si  tau(  31) = (   0.0134555   0.4977455   0.1729854  )
        32           Si  tau(  32) = (   0.1006778   0.5783364   0.2587513  )
        33           Si  tau(  33) = (   0.0159771   0.3318481   0.3443446  )
        34           Si  tau(  34) = (   0.1026841   0.4134089   0.4298026  )
        35           Si  tau(  35) = (   0.1855648   0.4980528   0.3456970  )
        36           Si  tau(  36) = (   0.2723161   0.5799099   0.4307087  )
        37           Si  tau(  37) = (   0.1875668   0.3338900   0.5176358  )
        38           Si  tau(  38) = (   0.2744031   0.4152921   0.6029409  )
        39           Si  tau(  39) = (   0.0235018   0.4976800   0.5173393  )
        40           Si  tau(  40) = (   0.1105892   0.5793266   0.6018954  )
        41           Si  tau(  41) = (   0.0255958   0.3329590   0.6903753  )
        42           Si  tau(  42) = (   0.1125801   0.4150218   0.7748632  )
        43           Si  tau(  43) = (   0.1949705   0.4997689   0.6902224  )
        44           Si  tau(  44) = (   0.2809789   0.5820861   0.7757052  )
        45           Si  tau(  45) = (   0.1970432   0.3340751   0.8620445  )
        46           Si  tau(  46) = (   0.2840617   0.4158812   0.9469529  )
        47           Si  tau(  47) = (   0.0334969   0.5003490   0.8615372  )
        48           Si  tau(  48) = (   0.1205230   0.5818843   0.9465872  )
        49           Si  tau(  49) = (   0.0112550   0.6620551   0.0007131  )
        50           Si  tau(  50) = (   0.0986614   0.7425049   0.0867322  )
        51           Si  tau(  51) = (   0.1813688   0.8287639   0.0052040  )
        52           Si  tau(  52) = (   0.2694974   0.9104471   0.0879165  )
        53           Si  tau(  53) = (   0.1834710   0.6623237   0.1737075  )
        54           Si  tau(  54) = (   0.2702741   0.7444313   0.2584630  )
        55           Si  tau(  55) = (   0.0234611   0.8280923   0.1756560  )
        56           Si  tau(  56) = (   0.1084107   0.9111922   0.2602534  )
        57           Si  tau(  57) = (   0.0219398   0.6626053   0.3467291  )
        58           Si  tau(  58) = (   0.1086186   0.7449023   0.4311302  )
        59           Si  tau(  59) = (   0.1917568   0.8289280   0.3465121  )
        60           Si  tau(  60) = (   0.2782792   0.9110659   0.4311209  )
        61           Si  tau(  61) = (   0.1932967   0.6645794   0.5182009  )
        62           Si  tau(  62) = (   0.2794388   0.7467312   0.6035928  )
        63           Si  tau(  63) = (   0.0289775   0.8301688   0.5172556  )
        64           Si  tau(  64) = (   0.1158282   0.9116844   0.6023686  )
        65           Si  tau(  65) = (   1.0305241   0.6639696   0.6879392  )
        66           Si  tau(  66) = (   0.1160882   0.7462571   0.7734675  )
        67           Si  tau(  67) = (   0.2000598   0.8319828   0.6907348  )
        68           Si  tau(  68) = (   0.2872901   0.9148347   0.7752114  )
        69           Si  tau(  69) = (   0.2020080   0.6680372   0.8625549  )
        70           Si  tau(  70) = (   0.2896523   0.7482027   0.9493312  )
        71           Si  tau(  71) = (   1.0343928   0.8307307   0.8588718  )
        72           Si  tau(  72) = (   0.1317214   0.9052500   0.9390237  )
        73           Si  tau(  73) = (   0.3340010   0.0002684   0.0009976  )
        74           Si  tau(  74) = (   0.4210641   0.0817247   0.0859862  )
        75           Si  tau(  75) = (   0.5033383   0.1659110   0.0007397  )
        76           Si  tau(  76) = (   0.5901219   0.2472140   0.0861121  )
        77           Si  tau(  77) = (   0.5057497   0.0008223   0.1728686  )
        78           Si  tau(  78) = (   0.5923100   0.0822651   0.2582895  )
        79           Si  tau(  79) = (   0.3422138   0.1668026   0.1731796  )
        80           Si  tau(  80) = (   0.4289627   0.2484252   0.2582047  )
        81           Si  tau(  81) = (   0.3609698   0.9949640   0.3459139  )
        82           Si  tau(  82) = (   0.4310506   0.0832450   0.4304731  )
        83           Si  tau(  83) = (   0.5133290   0.1673912   0.3451536  )
        84           Si  tau(  84) = (   0.6002646   0.2487737   0.4302707  )
        85           Si  tau(  85) = (   0.5154169   0.0022564   0.5171895  )
        86           Si  tau(  86) = (   0.6019509   0.0839149   0.6020938  )
        87           Si  tau(  87) = (   0.3514569   0.1679516   0.5172732  )
        88           Si  tau(  88) = (   0.4382135   0.2494488   0.6024988  )
        89           Si  tau(  89) = (   0.3543215   0.0030287   0.6888649  )
        90           Si  tau(  90) = (   0.4408130   0.0843897   0.7744438  )
        91           Si  tau(  91) = (   0.5230231   0.1687446   0.6894114  )
        92           Si  tau(  92) = (   0.6096024   0.2504045   0.7745678  )
        93           Si  tau(  93) = (   0.5251763   0.0036155   0.8616953  )
        94           Si  tau(  94) = (   0.6121340   0.0850810   0.9467700  )
        95           Si  tau(  95) = (   0.3616004   0.1692335   0.8615517  )
        96           Si  tau(  96) = (   0.4484859   0.2507185   0.9467091  )
        97           Si  tau(  97) = (   0.3393967   0.3312644   0.0006837  )
        98           Si  tau(  98) = (   0.4263194   0.4126629   0.0858327  )
        99           Si  tau(  99) = (   0.5085806   0.4968026   0.0006469  )
       100           Si  tau( 100) = (   0.5954900   0.5779224   0.0859411  )
       101           Si  tau( 101) = (   0.5113545   0.3325152   0.1729978  )
       102           Si  tau( 102) = (   0.5983816   0.4139234   0.2580859  )
       103           Si  tau( 103) = (   0.3474594   0.4973599   0.1732530  )
       104           Si  tau( 104) = (   0.4343939   0.5792402   0.2580828  )
       105           Si  tau( 105) = (   0.3494548   0.3328490   0.3453664  )
       106           Si  tau( 106) = (   0.4362903   0.4144667   0.4304163  )
       107           Si  tau( 107) = (   0.5188897   0.4984691   0.3451773  )
       108           Si  tau( 108) = (   0.6057098   0.5802362   0.4300248  )
       109           Si  tau( 109) = (   0.5208162   0.3334603   0.5173021  )
       110           Si  tau( 110) = (   0.6075640   0.4151079   0.6023438  )
       111           Si  tau( 111) = (   0.3569837   0.4991401   0.5176214  )
       112           Si  tau( 112) = (   0.4435171   0.5809489   0.6027333  )
       113           Si  tau( 113) = (   0.3588679   0.3340783   0.6896614  )
       114           Si  tau( 114) = (   0.4454839   0.4159344   0.7746607  )
       115           Si  tau( 115) = (   0.5281329   0.4998105   0.6894114  )
       116           Si  tau( 116) = (   0.6148795   0.5811925   0.7746669  )
       117           Si  tau( 117) = (   0.5303882   0.3352341   0.8615600  )
       118           Si  tau( 118) = (   0.6175835   0.4159557   0.9469405  )
       119           Si  tau( 119) = (   0.3659907   0.5005259   0.8617873  )
       120           Si  tau( 120) = (   0.4535018   0.5814437   0.9467680  )
       121           Si  tau( 121) = (   0.3453915   0.6620303   0.0014813  )
       122           Si  tau( 122) = (   0.4324001   0.7438134   0.0861293  )
       123           Si  tau( 123) = (   0.5141431   0.8284494   0.0007579  )
       124           Si  tau( 124) = (   0.6012347   0.9099276   0.0857149  )
       125           Si  tau( 125) = (   0.5172164   0.6634157   0.1731311  )
       126           Si  tau( 126) = (   0.6045254   0.7454470   0.2574392  )
       127           Si  tau( 127) = (   0.3535415   0.8282858   0.1737943  )
       128           Si  tau( 128) = (   0.4400942   0.9104139   0.2584558  )
       129           Si  tau( 129) = (   0.3549335   0.6636354   0.3453127  )
       130           Si  tau( 130) = (   0.4416800   0.7454285   0.4302273  )
       131           Si  tau( 131) = (   0.5245794   0.8293029   0.3450286  )
       132           Si  tau( 132) = (   0.6107121   0.9109607   0.4304091  )
       133           Si  tau( 133) = (   0.5262216   0.6646823   0.5173042  )
       134           Si  tau( 134) = (   0.6130095   0.7460928   0.6024833  )
       135           Si  tau( 135) = (   0.3624809   0.8299036   0.5178094  )
       136           Si  tau( 136) = (   0.4494701   0.9117054   0.6021485  )
       137           Si  tau( 137) = (   0.3639151   0.6653973   0.6900860  )
       138           Si  tau( 138) = (   0.4501193   0.7474963   0.7752000  )
       139           Si  tau( 139) = (   0.5332391   0.8306818   0.6894672  )
       140           Si  tau( 140) = (   0.6199544   0.9124313   0.7741524  )
       141           Si  tau( 141) = (   0.5351489   0.6660677   0.8613750  )
       142           Si  tau( 142) = (   0.6221584   0.7470768   0.9465624  )
       143           Si  tau( 143) = (   0.3709253   0.8326475   0.8626076  )
       144           Si  tau( 144) = (   0.4591108   0.9133822   0.9470097  )
       145           Si  tau( 145) = (   0.6672585   0.0002095   0.0004548  )
       146           Si  tau( 146) = (   0.7540698   0.0826261   0.0847963  )
       147           Si  tau( 147) = (   0.8663906   0.1703828   1.0330649  )
       148           Si  tau( 148) = (   0.9238701   0.2469874   0.0850985  )
       149           Si  tau( 149) = (   0.8393767   0.0043031   0.1725535  )
       150           Si  tau( 150) = (   0.9268471   0.0829225   0.2587192  )
       151           Si  tau( 151) = (   0.6748658   0.1662433   0.1729761  )
       152           Si  tau( 152) = (   0.7619387   0.2476781   0.2580054  )
       153           Si  tau( 153) = (   0.6766484   0.0015870   0.3456681  )
       154           Si  tau( 154) = (   0.7638902   0.0829917   0.4303605  )
       155           Si  tau( 155) = (   0.8465486   0.1671054   0.3452672  )
       156           Si  tau( 156) = (   0.9333569   0.2487402   0.4303357  )
       157           Si  tau( 157) = (   0.8486749   0.0021592   0.5170707  )
       158           Si  tau( 158) = (   0.9354352   0.0838307   0.6020803  )
       159           Si  tau( 159) = (   0.6848496   0.1679507   0.5172990  )
       160           Si  tau( 160) = (   0.7717287   0.2497105   0.6020793  )
       161           Si  tau( 161) = (   0.7023027   0.9962373   0.6885002  )
       162           Si  tau( 162) = (   0.7719930   0.0855842   0.7725418  )
       163           Si  tau( 163) = (   0.8564712   0.1689526   0.6889816  )
       164           Si  tau( 164) = (   0.9434186   0.2486124   0.7760524  )
       165           Si  tau( 165) = (   0.8552975   0.0035293   0.8582323  )
       166           Si  tau( 166) = (   0.9417214   0.0834103   0.9443236  )
       167           Si  tau( 167) = (   0.6941960   0.1694786   0.8614670  )
       168           Si  tau( 168) = (   0.7815230   0.2508975   0.9462287  )
       169           Si  tau( 169) = (   0.6726025   0.3310819   0.0007831  )
       170           Si  tau( 170) = (   0.7596967   0.4124232   0.0858048  )
       171           Si  tau( 171) = (   0.8418319   0.4969869   0.0007595  )
       172           Si  tau( 172) = (   0.9285434   0.5785453   0.0861228  )
       173           Si  tau( 173) = (   0.8445258   0.3314225   0.1726217  )
       174           Si  tau( 174) = (   0.9312083   0.4131474   0.2578886  )
       175           Si  tau( 175) = (   0.6809847   0.4978320   0.1727498  )
       176           Si  tau( 176) = (   0.7682143   0.5800490   0.2570074  )
       177           Si  tau( 177) = (   0.6827512   0.3327161   0.3449356  )
       178           Si  tau( 178) = (   0.7694563   0.4145538   0.4298109  )
       179           Si  tau( 179) = (   0.8519705   0.4984562   0.3444107  )
       180           Si  tau( 180) = (   0.9386504   0.5786472   0.4308461  )
       181           Si  tau( 181) = (   0.8540993   0.3338087   0.5169323  )
       182           Si  tau( 182) = (   0.9412210   0.4139017   0.6029626  )
       183           Si  tau( 183) = (   0.6900421   0.4990928   0.5169653  )
       184           Si  tau( 184) = (   0.7769244   0.5805356   0.6020029  )
       185           Si  tau( 185) = (   0.6922239   0.3341351   0.6892110  )
       186           Si  tau( 186) = (   0.7791828   0.4154110   0.7742599  )
       187           Si  tau( 187) = (   0.8614650   0.4992963   0.6888029  )
       188           Si  tau( 188) = (   0.9485115   0.5802383   0.7738869  )
       189           Si  tau( 189) = (   0.8641760   0.3350547   0.8614443  )
       190           Si  tau( 190) = (   0.9509588   0.4164769   0.9467897  )
       191           Si  tau( 191) = (   0.6995959   0.4999158   0.8613069  )
       192           Si  tau( 192) = (   0.7864422   0.5810301   0.9464601  )
       193           Si  tau( 193) = (   0.7068333   0.6658405   1.0331248  )
       194           Si  tau( 194) = (   0.7647399   0.7444211   0.0834401  )
       195           Si  tau( 195) = (   0.8758060   0.8320612   1.0289262  )
       196           Si  tau( 196) = (   0.9284466   0.9015937   0.0927377  )
       197           Si  tau( 197) = (   0.8504841   0.6654046   0.1721589  )
       198           Si  tau( 198) = (   0.9387562   0.7443293   0.2593257  )
       199           Si  tau( 199) = (   0.6871921   0.8298991   0.1720597  )
       200           Si  tau( 200) = (   0.7731917   0.9127736   0.2575084  )
       201           Si  tau( 201) = (   0.6884203   0.6640048   0.3444676  )
       202           Si  tau( 202) = (   0.7752098   0.7459527   0.4290526  )
       203           Si  tau( 203) = (   0.8579637   0.8306267   0.3440047  )
       204           Si  tau( 204) = (   0.9444729   0.9111630   0.4302862  )
       205           Si  tau( 205) = (   0.8591292   0.6645673   0.5163775  )
       206           Si  tau( 206) = (   0.9461396   0.7455353   0.6014811  )
       207           Si  tau( 207) = (   0.6954289   0.8298536   0.5167225  )
       208           Si  tau( 208) = (   0.7819043   0.9117039   0.6014946  )
       209           Si  tau( 209) = (   0.6975004   0.6649409   0.6892792  )
       210           Si  tau( 210) = (   0.7844053   0.7464359   0.7742010  )
       211           Si  tau( 211) = (   0.8661835   0.8302188   0.6879661  )
       212           Si  tau( 212) = (   0.9517785   0.9131032   0.7723786  )
       213           Si  tau( 213) = (   0.8688058   0.6647962   0.8607738  )
       214           Si  tau( 214) = (   0.9559228   0.7456254   0.9457307  )
       215           Si  tau( 215) = (   0.7041366   0.8308679   0.8606694  )
       216           H   tau( 216) = (   0.9805820   0.0227743   1.0046488  )
       217           H   tau( 217) = (   0.1847632   0.8461459   0.8826006  )
       218           H   tau( 218) = (   0.0486263   0.0211831   0.0296714  )
       219           H   tau( 219) = (   0.8741697   0.8423221   0.1483268  )

   Crystallographic axes

     site n.     atom                  positions (cryst. coord.)
         1           Si  tau(   1) = (  0.7484030  0.9157110  0.9141620  )
         2           Si  tau(   2) = (  0.0876049  0.0809779  0.0856034  )
         3           Si  tau(   3) = (  0.1675870  0.1675460  0.0015123  )
         4           Si  tau(   4) = (  0.2506680  0.2488750  0.0838467  )
         5           Si  tau(   5) = (  0.1702590  0.0001321  0.1703600  )
         6           Si  tau(   6) = (  0.2520430  0.0830217  0.2516040  )
         7           Si  tau(   7) = (  0.0004728  0.1655780  0.1658350  )
         8           Si  tau(   8) = (  0.0837729  0.2474990  0.2487650  )
         9           Si  tau(   9) = (  0.0009502  0.0002339  0.3346180  )
        10           Si  tau(  10) = (  0.0839314  0.0820437  0.4168480  )
        11           Si  tau(  11) = (  0.1671850  0.1673760  0.3345660  )
        12           Si  tau(  12) = (  0.2503750  0.2489410  0.4168660  )
        13           Si  tau(  13) = (  0.1672660  0.0001218  0.5008920  )
        14           Si  tau(  14) = (  0.2505360  0.0817994  0.5829940  )
        15           Si  tau(  15) = (  0.0005295  0.1670620  0.5007210  )
        16           Si  tau(  16) = (  0.0837511  0.2486400  0.5830380  )
        17           Si  tau(  17) = (  0.0001490  0.0000552  0.6667140  )
        18           Si  tau(  18) = (  0.0826683  0.0823893  0.7490250  )
        19           Si  tau(  19) = (  0.1671800  0.1668060  0.6671230  )
        20           Si  tau(  20) = (  0.2501370  0.2482320  0.7499020  )
        21           Si  tau(  21) = (  0.1671360  0.0040987  0.8341280  )
        22           Si  tau(  22) = (  0.2508360  0.0830287  0.9174950  )
        23           Si  tau(  23) = (  0.0007719  0.1650080  0.8359710  )
        24           Si  tau(  24) = (  0.0834021  0.2480070  0.9174250  )
        25           Si  tau(  25) = (  0.0005583  0.3339810  0.0007277  )
        26           Si  tau(  26) = (  0.0836915  0.4154030  0.0832145  )
        27           Si  tau(  27) = (  0.1672500  0.5001910  0.0007027  )
        28           Si  tau(  28) = (  0.2507810  0.5810400  0.0835207  )
        29           Si  tau(  29) = (  0.1671360  0.3338420  0.1675890  )
        30           Si  tau(  30) = (  0.2505570  0.4150480  0.2501630  )
        31           Si  tau(  31) = (  0.0003374  0.5001370  0.1674390  )
        32           Si  tau(  32) = (  0.0837785  0.5808880  0.2504550  )
        33           Si  tau(  33) = (  0.0006600  0.3325420  0.3333040  )
        34           Si  tau(  34) = (  0.0835788  0.4142700  0.4160220  )
        35           Si  tau(  35) = (  0.1674860  0.4997670  0.3346130  )
        36           Si  tau(  36) = (  0.2504570  0.5817950  0.4168990  )
        37           Si  tau(  37) = (  0.1672440  0.3339150  0.5010390  )
        38           Si  tau(  38) = (  0.2502990  0.4154840  0.5836090  )
        39           Si  tau(  39) = (  0.0005041  0.4987170  0.5007520  )
        40           Si  tau(  40) = (  0.0838277  0.5805350  0.5825970  )
        41           Si  tau(  41) = (  0.0003317  0.3322990  0.6682400  )
        42           Si  tau(  42) = (  0.0835473  0.4145360  0.7500190  )
        43           Si  tau(  43) = (  0.1669780  0.5001390  0.6680920  )
        44           Si  tau(  44) = (  0.2491850  0.5826280  0.7508340  )
        45           Si  tau(  45) = (  0.1668350  0.3327470  0.8344050  )
        46           Si  tau(  46) = (  0.2500770  0.4147240  0.9165910  )
        47           Si  tau(  47) = (  0.0005792  0.5000490  0.8339140  )
        48           Si  tau(  48) = (  0.0838292  0.5817530  0.9162370  )
        49           Si  tau(  49) = (  0.0003882  0.6661380  0.0006903  )
        50           Si  tau(  50) = (  0.0840084  0.7467460  0.0839513  )
        51           Si  tau(  51) = (  0.1676420  0.8338580  0.0050372  )
        52           Si  tau(  52) = (  0.2520590  0.9157200  0.0850977  )
        53           Si  tau(  53) = (  0.1676360  0.6657280  0.1681380  )
        54           Si  tau(  54) = (  0.2506620  0.7480090  0.2501760  )
        55           Si  tau(  55) = (  0.0048544  0.8325120  0.1700240  )
        56           Si  tau(  56) = (  0.0860152  0.9157920  0.2519090  )
        57           Si  tau(  57) = (  0.0011355  0.6653310  0.3356120  )
        58           Si  tau(  58) = (  0.0840443  0.7478040  0.4173070  )
        59           Si  tau(  59) = (  0.1682340  0.8326810  0.3354020  )
        60           Si  tau(  60) = (  0.2509830  0.9149930  0.4172980  )
        61           Si  tau(  61) = (  0.1675400  0.6666430  0.5015860  )
        62           Si  tau(  62) = (  0.2498860  0.7489660  0.5842400  )
        63           Si  tau(  63) = (  0.0005351  0.8332580  0.5006710  )
        64           Si  tau(  64) = (  0.0836082  0.9149420  0.5830550  )
        65           Si  tau(  65) = (  0.9999070  0.6653620  0.6658820  )
        66           Si  tau(  66) = (  0.0816689  0.7478210  0.7486680  )
        67           Si  tau(  67) = (  0.1666100  0.8344010  0.6685880  )
        68           Si  tau(  68) = (  0.2500590  0.9174320  0.7503560  )
        69           Si  tau(  69) = (  0.1663140  0.6687680  0.8348990  )
        70           Si  tau(  70) = (  0.2501550  0.7490870  0.9188930  )
        71           Si  tau(  71) = (  0.9961390  0.8324800  0.8313340  )
        72           Si  tau(  72) = (  0.0899470  0.9071440  0.9089160  )
        73           Si  tau(  73) = (  0.3339680  0.0002661  0.0009656  )
        74           Si  tau(  74) = (  0.4172580  0.0818909  0.0832292  )
        75           Si  tau(  75) = (  0.5005990  0.1669320  0.0007160  )
        76           Si  tau(  76) = (  0.5836010  0.2484010  0.0833511  )
        77           Si  tau(  77) = (  0.5007760  0.0001476  0.1673260  )
        78           Si  tau(  78) = (  0.5835510  0.0817571  0.2500080  )
        79           Si  tau(  79) = (  0.3345120  0.1671510  0.1676270  )
        80           Si  tau(  80) = (  0.4174840  0.2489430  0.2499260  )
        81           Si  tau(  81) = (  0.3347440  0.9997440  0.3348230  )
        82           Si  tau(  82) = (  0.4173350  0.0820660  0.4166710  )
        83           Si  tau(  83) = (  0.5006830  0.1670670  0.3340870  )
        84           Si  tau(  84) = (  0.5838430  0.2486170  0.4164750  )
        85           Si  tau(  85) = (  0.5005400  0.0002366  0.5006070  )
        86           Si  tau(  86) = (  0.5833000  0.0820651  0.5827890  )
        87           Si  tau(  87) = (  0.3338630  0.1669540  0.5006880  )
        88           Si  tau(  88) = (  0.4168390  0.2486190  0.5831810  )
        89           Si  tau(  89) = (  0.3345060  0.0003386  0.6667780  )
        90           Si  tau(  90) = (  0.4172090  0.0818651  0.7496130  )
        91           Si  tau(  91) = (  0.5004770  0.1670750  0.6673070  )
        92           Si  tau(  92) = (  0.5832750  0.2489040  0.7497330  )
        93           Si  tau(  93) = (  0.5003920  0.0002494  0.8340670  )
        94           Si  tau(  94) = (  0.5835740  0.0818831  0.9164140  )
        95           Si  tau(  95) = (  0.3341070  0.1668900  0.8339280  )
        96           Si  tau(  96) = (  0.4172140  0.2485430  0.9163550  )
        97           Si  tau(  97) = (  0.3339500  0.3333060  0.0006618  )
        98           Si  tau(  98) = (  0.4170960  0.4148720  0.0830807  )
        99           Si  tau(  99) = (  0.5004230  0.4998660  0.0006262  )
       100           Si  tau( 100) = (  0.5835560  0.5811510  0.0831856  )
       101           Si  tau( 101) = (  0.5009430  0.3338870  0.1674510  )
       102           Si  tau( 102) = (  0.5841950  0.4154630  0.2498110  )
       103           Si  tau( 103) = (  0.3343400  0.4997480  0.1676980  )
       104           Si  tau( 104) = (  0.4174990  0.5818000  0.2498080  )
       105           Si  tau( 105) = (  0.3340920  0.3335450  0.3342930  )
       106           Si  tau( 106) = (  0.4171500  0.4153320  0.4166160  )
       107           Si  tau( 107) = (  0.5008190  0.5001880  0.3341100  )
       108           Si  tau( 108) = (  0.5838650  0.5821260  0.4162370  )
       109           Si  tau( 109) = (  0.5005100  0.3334840  0.5007160  )
       110           Si  tau( 110) = (  0.5834800  0.4153010  0.5830310  )
       111           Si  tau( 111) = (  0.3339540  0.5001850  0.5010250  )
       112           Si  tau( 112) = (  0.4167050  0.5821640  0.5834080  )
       113           Si  tau( 113) = (  0.3336060  0.3334280  0.6675490  )
       114           Si  tau( 114) = (  0.4164420  0.4154550  0.7498230  )
       115           Si  tau( 115) = (  0.5001630  0.5001840  0.6673070  )
       116           Si  tau( 116) = (  0.5831300  0.5817330  0.7498290  )
       117           Si  tau( 117) = (  0.5001750  0.3339150  0.8339360  )
       118           Si  tau( 118) = (  0.5835980  0.4147990  0.9165790  )
       119           Si  tau( 119) = (  0.3330630  0.5002260  0.8341560  )
       120           Si  tau( 120) = (  0.4168100  0.5813090  0.9164120  )
       121           Si  tau( 121) = (  0.3345030  0.6661100  0.0014338  )
       122           Si  tau( 122) = (  0.4177430  0.7480650  0.0833678  )
       123           Si  tau( 123) = (  0.5005490  0.8335590  0.0007336  )
       124           Si  tau( 124) = (  0.5838680  0.9152060  0.0829666  )
       125           Si  tau( 125) = (  0.5013800  0.6668290  0.1675800  )
       126           Si  tau( 126) = (  0.5849260  0.7490350  0.2491850  )
       127           Si  tau( 127) = (  0.3349850  0.8327140  0.1682220  )
       128           Si  tau( 128) = (  0.4177630  0.9150160  0.2501690  )
       129           Si  tau( 129) = (  0.3341530  0.6663730  0.3342410  )
       130           Si  tau( 130) = (  0.4171230  0.7483370  0.4164330  )
       131           Si  tau( 131) = (  0.5010930  0.8330640  0.3339660  )
       132           Si  tau( 132) = (  0.5834380  0.9148900  0.4166090  )
       133           Si  tau( 133) = (  0.5004890  0.6667500  0.5007180  )
       134           Si  tau( 134) = (  0.5834990  0.7483280  0.5831660  )
       135           Si  tau( 135) = (  0.3340270  0.8329890  0.5012070  )
       136           Si  tau( 136) = (  0.4172560  0.9149640  0.5828420  )
       137           Si  tau( 137) = (  0.3332130  0.6667900  0.6679600  )
       138           Si  tau( 138) = (  0.4156300  0.7490610  0.7503450  )
       139           Si  tau( 139) = (  0.4998470  0.8330970  0.6673610  )
       140           Si  tau( 140) = (  0.5827930  0.9150180  0.7493310  )
       141           Si  tau( 141) = (  0.4995210  0.6667910  0.8337570  )
       142           Si  tau( 142) = (  0.5827590  0.7479650  0.9162130  )
       143           Si  tau( 143) = (  0.3325330  0.8343940  0.8349500  )
       144           Si  tau( 144) = (  0.4169740  0.9152950  0.9166460  )
       145           Si  tau( 145) = (  0.6672420  0.0002090  0.0004402  )
       146           Si  tau( 146) = (  0.7502830  0.0828026  0.0820775  )
       147           Si  tau( 147) = (  0.8339570  0.1673720  0.9999420  )
       148           Si  tau( 148) = (  0.9173820  0.2481770  0.0823700  )
       149           Si  tau( 149) = (  0.8343550  0.0036512  0.1670210  )
       150           Si  tau( 150) = (  0.9180650  0.0824169  0.2504240  )
       151           Si  tau( 151) = (  0.6671790  0.1665890  0.1674300  )
       152           Si  tau( 152) = (  0.7504780  0.2481920  0.2497330  )
       153           Si  tau( 153) = (  0.6667040  0.0002375  0.3345850  )
       154           Si  tau( 154) = (  0.7501820  0.0818116  0.4165620  )
       155           Si  tau( 155) = (  0.8339040  0.1667790  0.3341970  )
       156           Si  tau( 156) = (  0.9169340  0.2485830  0.4165380  )
       157           Si  tau( 157) = (  0.8338030  0.0001392  0.5004920  )
       158           Si  tau( 158) = (  0.9167860  0.0819805  0.5827760  )
       159           Si  tau( 159) = (  0.6672550  0.1669530  0.5007130  )
       160           Si  tau( 160) = (  0.7503620  0.2488840  0.5827750  )
       161           Si  tau( 161) = (  0.6662260  0.9996780  0.6664250  )
       162           Si  tau( 162) = (  0.7484240  0.0830745  0.7477720  )
       163           Si  tau( 163) = (  0.8339340  0.1672860  0.6668910  )
       164           Si  tau( 164) = (  0.9170780  0.2470950  0.7511700  )
       165           Si  tau( 165) = (  0.8306140  0.0001763  0.8307150  )
       166           Si  tau( 166) = (  0.9132590  0.0802117  0.9140460  )
       167           Si  tau( 167) = (  0.6667010  0.1671370  0.8338460  )
       168           Si  tau( 168) = (  0.7502620  0.2487250  0.9158900  )
       169           Si  tau( 169) = (  0.6671560  0.3331220  0.0007580  )
       170           Si  tau( 170) = (  0.7504780  0.4146310  0.0830537  )
       171           Si  tau( 171) = (  0.8336680  0.5000510  0.0007352  )
       172           Si  tau( 172) = (  0.9165940  0.5817770  0.0833615  )
       173           Si  tau( 173) = (  0.8341430  0.3327890  0.1670870  )
       174           Si  tau( 174) = (  0.9170400  0.4146830  0.2496200  )
       175           Si  tau( 175) = (  0.6678720  0.5002250  0.1672110  )
       176           Si  tau( 176) = (  0.7513370  0.5826180  0.2487670  )
       177           Si  tau( 177) = (  0.6674030  0.3334130  0.3338760  )
       178           Si  tau( 178) = (  0.7503320  0.4154220  0.4160300  )
       179           Si  tau( 179) = (  0.8339220  0.5001780  0.3333680  )
       180           Si  tau( 180) = (  0.9168080  0.5805240  0.4170320  )
       181           Si  tau( 181) = (  0.8337980  0.3338360  0.5003580  )
       182           Si  tau( 182) = (  0.9171390  0.4140850  0.5836300  )
       183           Si  tau( 183) = (  0.6670320  0.5001400  0.5003900  )
       184           Si  tau( 184) = (  0.7501400  0.5817510  0.5827010  )
       185           Si  tau( 185) = (  0.6669740  0.3334870  0.6671130  )
       186           Si  tau( 186) = (  0.7501610  0.4149300  0.7494350  )
       187           Si  tau( 187) = (  0.8335210  0.4996690  0.6667180  )
       188           Si  tau( 188) = (  0.9168000  0.5807760  0.7490740  )
       189           Si  tau( 189) = (  0.8339690  0.3337350  0.8338240  )
       190           Si  tau( 190) = (  0.9169690  0.4153240  0.9164330  )
       191           Si  tau( 191) = (  0.6666920  0.4996140  0.8336910  )
       192           Si  tau( 192) = (  0.7497660  0.5808940  0.9161140  )
       193           Si  tau( 193) = (  0.6662810  0.6658870  1.0000000  )
       194           Si  tau( 194) = (  0.7501500  0.7486870  0.0807648  )
       195           Si  tau( 195) = (  0.8326510  0.8331500  0.9959360  )
       196           Si  tau( 196) = (  0.9110150  0.9067930  0.0897643  )
       197           Si  tau( 197) = (  0.8346430  0.6688340  0.1666390  )
       198           Si  tau( 198) = (  0.9191210  0.7479030  0.2510110  )
       199           Si  tau( 199) = (  0.6686590  0.8343440  0.1665430  )
       200           Si  tau( 200) = (  0.7508490  0.9173940  0.2492520  )
       201           Si  tau( 201) = (  0.6676580  0.6667480  0.3334230  )
       202           Si  tau( 202) = (  0.7506780  0.7488690  0.4152960  )
       203           Si  tau( 203) = (  0.8344850  0.8344000  0.3329750  )
       204           Si  tau( 204) = (  0.9171990  0.9150940  0.4164900  )
       205           Si  tau( 205) = (  0.8334250  0.6666380  0.4998210  )
       206           Si  tau( 206) = (  0.9166670  0.7477710  0.5821960  )
       207           Si  tau( 207) = (  0.6670070  0.8329430  0.5001550  )
       208           Si  tau( 208) = (  0.7497090  0.9149650  0.5822090  )
       209           Si  tau( 209) = (  0.6668290  0.6663340  0.6671790  )
       210           Si  tau( 210) = (  0.7499620  0.7479980  0.7493780  )
       211           Si  tau( 211) = (  0.8328420  0.8326370  0.6659080  )
       212           Si  tau( 212) = (  0.9146570  0.9157010  0.7476140  )
       213           Si  tau( 213) = (  0.8332160  0.6655140  0.8331750  )
       214           Si  tau( 214) = (  0.9165710  0.7465080  0.9154080  )
       215           Si  tau( 215) = (  0.6658290  0.8326110  0.8330740  )
       216           H   tau( 216) = (  0.9513820  0.0189643  0.9724370  )
       217           H   tau( 217) = (  0.1455760  0.8478970  0.8543020  )
       218           H   tau( 218) = (  0.0474279  0.0211972  0.0287201  )
       219           H   tau( 219) = (  0.8561140  0.8469370  0.1435710  )

     number of k points=     8  Marzari-Vanderbilt smearing, width (Ry)=  0.0500
                       cart. coord. in units 2pi/alat
        k(    1) = (   0.0000000   0.0000000   0.0000000), wk =   0.2500000
        k(    2) = (   0.0000000   0.0000000  -0.4839686), wk =   0.2500000
        k(    3) = (   0.0000000  -0.5030856   0.0019662), wk =   0.2500000
        k(    4) = (   0.0000000  -0.5030856  -0.4820025), wk =   0.2500000
        k(    5) = (  -0.5000000   0.0081914   0.0143467), wk =   0.2500000
        k(    6) = (  -0.5000000   0.0081914  -0.4696219), wk =   0.2500000
        k(    7) = (  -0.5000000  -0.4948942   0.0163129), wk =   0.2500000
        k(    8) = (  -0.5000000  -0.4948942  -0.4676557), wk =   0.2500000

                       cryst. coord.
        k(    1) = (   0.0000000   0.0000000   0.0000000), wk =   0.2500000
        k(    2) = (   0.0000000   0.0000000  -0.5000000), wk =   0.2500000
        k(    3) = (   0.0000000  -0.5000000  -0.0000000), wk =   0.2500000
        k(    4) = (   0.0000000  -0.5000000  -0.5000000), wk =   0.2500000
        k(    5) = (  -0.5000000  -0.0000000   0.0000000), wk =   0.2500000
        k(    6) = (  -0.5000000  -0.0000000  -0.5000000), wk =   0.2500000
        k(    7) = (  -0.5000000  -0.5000000   0.0000000), wk =   0.2500000
        k(    8) = (  -0.5000000  -0.5000000  -0.5000000), wk =   0.2500000

     Dense  grid:  1035645 G-vectors     FFT dimensions: ( 125, 125, 135)

     Dynamical RAM for                 wfc:     127.90 MB

     Dynamical RAM for     wfc (w. buffer):    1151.06 MB

     Dynamical RAM for           str. fact:       3.95 MB

     Dynamical RAM for           local pot:       0.00 MB

     Dynamical RAM for          nlocal pot:     265.42 MB

     Dynamical RAM for                qrad:       1.71 MB

     Dynamical RAM for          rho,v,vnew:      12.01 MB

     Dynamical RAM for               rhoin:       4.00 MB

     Dynamical RAM for            rho*nmix:      31.61 MB

     Dynamical RAM for           G-vectors:       8.40 MB

     Dynamical RAM for          h,s,v(r/c):     196.53 MB

     Dynamical RAM for          <psi|beta>:       8.50 MB

     Dynamical RAM for                 psi:     511.58 MB

     Dynamical RAM for                hpsi:     511.58 MB

     Dynamical RAM for      wfcinit/wfcrot:     443.74 MB

     Estimated static dynamical RAM per process >       1.46 GB

     Estimated max dynamical RAM per process >       2.66 GB

     Estimated total dynamical RAM >      21.27 GB

     Initial potential from superposition of free atoms

     starting charge  863.87972, renormalised to  864.00000
     Starting wfc are  864 randomized atomic wfcs

     total cpu time spent up to now is      227.7 secs

     Self-consistent Calculation

     iteration #  1     ecut=    42.00 Ry     beta= 0.30
     Davidson diagonalization with overlap
     ethr =  1.00E-02,  avg # of iterations =  3.0

     Threshold (ethr) on eigenvalues was too large:
     Diagonalizing with lowered threshold

     Davidson diagonalization with overlap
     ethr =  7.92E-04,  avg # of iterations =  1.6

     total cpu time spent up to now is     1103.4 secs

     total energy              =   -1697.83701903 Ry
     Harris-Foulkes estimate   =   -1698.87334528 Ry
     estimated scf accuracy    <       6.68475905 Ry

     iteration #  2     ecut=    42.00 Ry     beta= 0.30
     Davidson diagonalization with overlap
     ethr =  7.74E-04,  avg # of iterations =  1.5

     total cpu time spent up to now is     1412.1 secs

     total energy              =   -1697.25116198 Ry
     Harris-Foulkes estimate   =   -1697.92018925 Ry
     estimated scf accuracy    <       2.77672285 Ry

     iteration #  3     ecut=    42.00 Ry     beta= 0.30
     Davidson diagonalization with overlap
     ethr =  3.21E-04,  avg # of iterations = 11.6

     total cpu time spent up to now is     1971.9 secs

     total energy              =   -1697.38218321 Ry
     Harris-Foulkes estimate   =   -1697.43566755 Ry
     estimated scf accuracy    <       0.22960293 Ry

     iteration #  4     ecut=    42.00 Ry     beta= 0.30
     Davidson diagonalization with overlap
     ethr =  2.66E-05,  avg # of iterations =  9.8

     total cpu time spent up to now is     2659.7 secs

     total energy              =   -1697.41609427 Ry
     Harris-Foulkes estimate   =   -1697.43995605 Ry
     estimated scf accuracy    <       0.12099902 Ry

     iteration #  5     ecut=    42.00 Ry     beta= 0.30
     Davidson diagonalization with overlap
     ethr =  1.40E-05,  avg # of iterations =  7.9

     total cpu time spent up to now is     3166.8 secs

     total energy              =   -1697.42676009 Ry
     Harris-Foulkes estimate   =   -1697.43067603 Ry
     estimated scf accuracy    <       0.02442112 Ry

     iteration #  6     ecut=    42.00 Ry     beta= 0.30
     Davidson diagonalization with overlap
     ethr =  2.83E-06,  avg # of iterations =  7.6

     total cpu time spent up to now is     3672.6 secs

     total energy              =   -1697.42834453 Ry
     Harris-Foulkes estimate   =   -1697.42987033 Ry
     estimated scf accuracy    <       0.00937565 Ry

     iteration #  7     ecut=    42.00 Ry     beta= 0.30
     Davidson diagonalization with overlap
     ethr =  1.09E-06,  avg # of iterations =  7.4

     total cpu time spent up to now is     4151.8 secs

     total energy              =   -1697.42903172 Ry
     Harris-Foulkes estimate   =   -1697.42989614 Ry
     estimated scf accuracy    <       0.00469261 Ry

     iteration #  8     ecut=    42.00 Ry     beta= 0.30
     Davidson diagonalization with overlap
     ethr =  5.43E-07,  avg # of iterations =  2.8

     total cpu time spent up to now is     4502.8 secs

     total energy              =   -1697.42951208 Ry
     Harris-Foulkes estimate   =   -1697.42962981 Ry
     estimated scf accuracy    <       0.00070532 Ry

     iteration #  9     ecut=    42.00 Ry     beta= 0.30
     Davidson diagonalization with overlap
     ethr =  8.16E-08,  avg # of iterations =  3.0

     total cpu time spent up to now is     4868.4 secs

     total energy              =   -1697.42958394 Ry
     Harris-Foulkes estimate   =   -1697.42960461 Ry
     estimated scf accuracy    <       0.00009636 Ry

     iteration # 10     ecut=    42.00 Ry     beta= 0.30
     Davidson diagonalization with overlap
     ethr =  1.12E-08,  avg # of iterations =  3.5

     total cpu time spent up to now is     5285.8 secs

     total energy              =   -1697.42959642 Ry
     Harris-Foulkes estimate   =   -1697.42960710 Ry
     estimated scf accuracy    <       0.00005486 Ry

     iteration # 11     ecut=    42.00 Ry     beta= 0.30
     Davidson diagonalization with overlap
     ethr =  6.35E-09,  avg # of iterations =  3.0

     total cpu time spent up to now is     5672.8 secs

     total energy              =   -1697.42960408 Ry
     Harris-Foulkes estimate   =   -1697.42960475 Ry
     estimated scf accuracy    <       0.00001230 Ry

     iteration # 12     ecut=    42.00 Ry     beta= 0.30
     Davidson diagonalization with overlap
     ethr =  1.42E-09,  avg # of iterations =  3.0

     total cpu time spent up to now is     6041.5 secs

     total energy              =   -1697.42960615 Ry
     Harris-Foulkes estimate   =   -1697.42960577 Ry
     estimated scf accuracy    <       0.00000219 Ry

     iteration # 13     ecut=    42.00 Ry     beta= 0.30
     Davidson diagonalization with overlap
     ethr =  2.53E-10,  avg # of iterations =  3.0

     total cpu time spent up to now is     6444.2 secs

     total energy              =   -1697.42960675 Ry
     Harris-Foulkes estimate   =   -1697.42960651 Ry
     estimated scf accuracy    <       0.00000067 Ry

     iteration # 14     ecut=    42.00 Ry     beta= 0.30
     Davidson diagonalization with overlap
     ethr =  7.80E-11,  avg # of iterations =  3.0

     total cpu time spent up to now is     6807.1 secs

     total energy              =   -1697.42960704 Ry
     Harris-Foulkes estimate   =   -1697.42960683 Ry
     estimated scf accuracy    <       0.00000024 Ry

     iteration # 15     ecut=    42.00 Ry     beta= 0.30
     Davidson diagonalization with overlap
     ethr =  2.74E-11,  avg # of iterations =  3.0

     total cpu time spent up to now is     7174.5 secs

     total energy              =   -1697.42960712 Ry
     Harris-Foulkes estimate   =   -1697.42960707 Ry
     estimated scf accuracy    <       0.00000009 Ry

     iteration # 16     ecut=    42.00 Ry     beta= 0.30
     Davidson diagonalization with overlap
     ethr =  1.10E-11,  avg # of iterations =  3.6

     total cpu time spent up to now is     7561.3 secs

     total energy              =   -1697.42960716 Ry
     Harris-Foulkes estimate   =   -1697.42960714 Ry
     estimated scf accuracy    <       0.00000006 Ry

     iteration # 17     ecut=    42.00 Ry     beta= 0.30
     Davidson diagonalization with overlap
     ethr =  6.72E-12,  avg # of iterations =  3.4

     total cpu time spent up to now is     7932.4 secs

     total energy              =   -1697.42960717 Ry
     Harris-Foulkes estimate   =   -1697.42960717 Ry
     estimated scf accuracy    <       0.00000002 Ry

     iteration # 18     ecut=    42.00 Ry     beta= 0.30
     Davidson diagonalization with overlap
     ethr =  2.29E-12,  avg # of iterations =  3.4

     total cpu time spent up to now is     8308.3 secs

     End of self-consistent calculation

          k = 0.0000 0.0000 0.0000 (129439 PWs)   bands (ev):

    -5.6463  -5.1863  -5.1672  -5.1515  -5.1486  -5.1338  -5.1125  -4.7413
    -4.7326  -4.7062  -4.6874  -4.6695  -4.6673  -4.6661  -4.6606  -4.6476
    -4.6347  -4.6276  -4.5790  -4.2981  -4.2709  -4.2409  -4.2367  -4.2218
    -4.1941  -4.1719  -4.1425  -3.7892  -3.7439  -3.6736  -3.6616  -3.6429
    -3.6088  -3.4518  -3.4127  -3.3852  -3.3502  -3.3416  -3.3331  -3.3231
    -3.3208  -3.2996  -3.2939  -3.2846  -3.2769  -3.2732  -3.2654  -3.2599
    -3.2546  -3.2441  -3.2368  -3.2156  -3.2134  -3.2079  -3.2039  -3.2007
    -3.1957  -3.1908  -3.1641  -3.1505  -3.1394  -3.1362  -3.1301  -3.1184
    -3.0887  -3.0734  -3.0679  -3.0532  -3.0487  -3.0469  -3.0306  -3.0283
    -3.0181  -3.0155  -3.0128  -3.0085  -2.9793  -2.9639  -2.9586  -2.9544
    -2.7159  -2.3609  -2.3594  -2.3176  -2.3115  -2.2777  -2.2767  -2.2484
    -2.2354  -2.2039  -2.1964  -2.1663  -2.0911  -1.5350  -1.4948  -1.4127
    -1.3994  -1.3686  -1.3600  -1.3340  -1.3219  -1.3085  -1.3000  -1.2931
    -1.2850  -1.2650  -1.2642  -1.2610  -1.2553  -1.2514  -1.2510  -1.2394
    -1.2324  -1.2241  -1.1914  -1.1814  -1.1601  -1.1289  -1.1228  -1.1206
    -1.1122  -1.1087  -0.9363  -0.4664  -0.4539  -0.4215  -0.4083  -0.3915
    -0.3192  -0.2688  -0.2574  -0.2510  -0.2471  -0.2444  -0.2416  -0.2354
    -0.2273  -0.2251  -0.2228  -0.2223  -0.2156  -0.2113  -0.1946  -0.1883
    -0.1811  -0.1743  -0.1682  -0.1625  -0.1565  -0.1519  -0.1439  -0.1416
    -0.1351  -0.1297  -0.1151  -0.1085  -0.1054  -0.0153   0.1995   0.7399
     0.7560   0.7838   0.8122   0.8170   0.8195   0.8208   0.8230   0.8235
     0.8269   0.8281   0.8297   0.8333   0.8382   0.8432   0.8742   0.8909
     0.8957   0.9116   0.9145   0.9205   0.9244   0.9343   0.9626   0.9760
     1.0810   1.0816   1.1454   1.1749   1.2057   1.2538   1.2991   1.3176
     1.4095   1.5724   1.5998   1.6199   1.7650   1.8902   1.8985   1.9204
     1.9269   1.9941   2.0060   2.0204   2.0259   2.0352   2.0366   2.0595
     2.0652   2.4323   2.4406   2.6015   2.6297   2.6610   2.6717   2.6752
     2.7141   2.7197   2.7215   2.7277   2.7356   2.7428   2.7448   2.7463
     2.7539   2.7550   2.7571   2.7623   2.7667   2.7711   2.7739   2.7834
     2.7891   2.7939   2.7965   2.8012   2.8047   2.8079   2.8133   2.8240
     2.8245   2.8320   2.8376   2.8414   2.8524   2.8655   2.8703   2.8723
     2.8787   2.8847   2.8893   2.8969   2.8992   2.9132   2.9190   2.9265
     2.9281   2.9367   2.9493   2.9552   2.9624   2.9731   2.9758   2.9965
     3.0022   3.0057   3.0076   3.1079   3.1449   3.3183   3.4347   3.4448
     3.4716   3.4932   3.5320   3.5780   3.5859   3.6146   3.6237   3.6406
     3.6564   3.6573   3.6908   3.6997   3.7117   3.7293   3.7379   3.7533
     3.7604   3.7757   3.7801   3.7928   3.8057   3.8064   3.8210   3.8402
     3.8782   3.8937   3.8970   3.9065   3.9160   3.9363   3.9408   3.9489
     3.9740   3.9783   3.9985   4.0267   4.0306   4.0445   4.0538   4.0761
     4.0835   4.0965   4.1052   4.1076   4.1090   4.1161   4.1196   4.1214
     4.1298   4.1318   4.1349   4.1421   4.1455   4.1555   4.1618   4.1680
     4.1707   4.1748   4.1809   4.1825   4.1920   4.1949   4.2112   4.2172
     4.2229   4.2328   4.2412   4.2487   4.2556   4.2688   4.2887   4.2900
     4.3089   4.3236   4.3261   4.3326   4.3452   4.3502   4.3600   4.3613
     4.3763   4.4127   4.4339   4.4452   4.4572   4.4654   4.4832   4.4881
     4.4939   4.5092   4.5234   4.5903   4.5957   4.6179   4.6345   4.6433
     4.6497   4.6591   4.6671   4.6810   4.6939   4.6963   4.7438   4.7541
     4.7673   4.7811   4.7954   4.8040   4.8167   4.8289   4.8483   4.8712
     4.9210   4.9859   5.0025   5.0480   5.0697   5.0806   5.0886   5.2171
     5.2309   5.2465   5.2511   5.2568   5.2631   5.3175   5.3558   5.3763
     5.3892   5.4445   5.4575   5.4632   5.4909   5.5111   5.5471   5.5588
     5.5843   5.6028   5.6104   5.6583   5.6872   5.7311   5.7465   5.7548
     5.7627   5.8371   5.8497   5.8768   5.8991   5.9202   5.9461   6.0188
     6.0249   6.0550   6.0738   6.2154   6.2414   6.2877   6.5888   6.7530
     6.8838   7.1036   7.1113   7.1292   7.1664   7.2102   7.2186   7.2913
     7.3541   7.4597   7.4882   7.5520   7.7442   7.8101   7.9469   7.9990
     8.0218   8.0609   8.1066   8.1155   8.1615   8.1625   8.1731   8.1889
     8.2048   8.2167   8.2236   8.2327   8.2424   8.2691   8.2871   8.3036
     8.3157   8.3445   8.4026   8.4171   8.4234   8.4333   8.4468   8.4526
     8.4621   8.4654   8.4691   8.4761   8.4807   8.4872   8.5159   8.5284
     8.5331   8.5749   8.5798   8.5953   8.6103   8.6256   8.6257   8.6344
     8.6397   8.6531   8.6644   8.6824   8.6946   8.7244   8.7504   8.7601
     8.7839   8.7985   8.8280   8.8460   8.8906   8.8965   8.9367   8.9415
     8.9856   9.0219   9.0776   9.0956   9.1053   9.1301   9.1432   9.1611
     9.1738   9.1805   9.1892   9.1995   9.2115   9.2203

     occupation numbers 
     1.0000   1.0000   1.0000   1.0000   1.0000   1.0000   1.0000   1.0000
     1.0000   1.0000   1.0000   1.0000   1.0000   1.0000   1.0000   1.0000
     1.0000   1.0000   1.0000   1.0000   1.0000   1.0000   1.0000   1.0000
     1.0000   1.0000   1.0000   1.0000   1.0000   1.0000   1.0000   1.0000
     1.0000   1.0000   1.0000   1.0000   1.0000   1.0000   1.0000   1.0000
     1.0000   1.0000   1.0000   1.0000   1.0000   1.0000   1.0000   1.0000
     1.0000   1.0000   1.0000   1.0000   1.0000   1.0000   1.0000   1.0000
     1.0000   1.0000   1.0000   1.0000   1.0000   1.0000   1.0000   1.0000
     1.0000   1.0000   1.0000   1.0000   1.0000   1.0000   1.0000   1.0000
     1.0000   1.0000   1.0000   1.0000   1.0000   1.0000   1.0000   1.0000
     1.0000   1.0000   1.0000   1.0000   1.0000   1.0000   1.0000   1.0000
     1.0000   1.0000   1.0000   1.0000   1.0000   1.0000   1.0000   1.0000
     1.0000   1.0000   1.0000   1.0000   1.0000   1.0000   1.0000   1.0000
     1.0000   1.0000   1.0000   1.0000   1.0000   1.0000   1.0000   1.0000
     1.0000   1.0000   1.0000   1.0000   1.0000   1.0000   1.0000   1.0000
     1.0000   1.0000   1.0000   1.0000   1.0000   1.0000   1.0000   1.0000
     1.0000   1.0000   1.0000   1.0000   1.0000   1.0000   1.0000   1.0000
     1.0000   1.0000   1.0000   1.0000   1.0000   1.0000   1.0000   1.0000
     1.0000   1.0000   1.0000   1.0000   1.0000   1.0000   1.0000   1.0000
     1.0000   1.0000   1.0000   1.0000   1.0000   1.0000   1.0000   1.0000
     1.0000   1.0000   1.0000   1.0000   1.0000   1.0000   1.0000   1.0000
     1.0000   1.0000   1.0000   1.0000   1.0000   1.0000   1.0000   1.0000
     1.0000   1.0000   1.0000   1.0000   1.0000   1.0000   1.0000   1.0000
     1.0000   1.0000   1.0000   1.0000   1.0000   1.0000   1.0000   1.0000
     1.0000   1.0000   1.0000   1.0000   1.0000   1.0000   1.0000   1.0000
     1.0000   1.0000   1.0000   1.0000   1.0000   1.0000   1.0000   1.0000
     1.0000   1.0000   1.0000   1.0000   1.0000   1.0000   1.0000   1.0000
     1.0000   1.0000   1.0000   1.0000   1.0000   1.0000   1.0000   1.0000
     1.0000   1.0000   1.0000   1.0000   1.0000   1.0000   1.0000   1.0000
     1.0000   1.0000   1.0000   1.0000   1.0000   1.0000   1.0000   1.0000
     1.0000   1.0000   1.0000   1.0000   1.0000   1.0000   1.0000   1.0000
     1.0000   1.0000   1.0000   1.0000   1.0000   1.0000   1.0000   1.0000
     1.0000   1.0000   1.0000   1.0000   1.0000   1.0000   1.0000   1.0000
     1.0000   1.0000   1.0000   1.0000   1.0000   1.0000   1.0000   1.0000
     1.0000   1.0000   1.0000   1.0000   1.0000   1.0000   1.0000   1.0000
     1.0000   1.0000   1.0000   1.0000   1.0000   1.0000   1.0000   1.0000
     1.0000   1.0000   1.0000   1.0000   1.0000   1.0000   1.0000   1.0000
     1.0000   1.0000   1.0000   1.0000   1.0000   1.0000   1.0000   1.0000
     1.0001   1.0001   1.0001   1.0001   1.0001   1.0001   1.0001   1.0001
     1.0002   1.0002   1.0002   1.0002   1.0002   1.0002   1.0002   1.0002
     1.0002   1.0002   1.0002   1.0002   1.0002   1.0003   1.0003   1.0003
     1.0003   1.0003   1.0003   1.0003   1.0003   1.0004   1.0004   1.0004
     1.0004   1.0005   1.0005   1.0005   1.0006   1.0006   1.0007   1.0007
     1.0008   1.0009   1.0009   1.0009   1.0010   1.0011   1.0011   1.0011
     1.0013   1.0016   1.0018   1.0020   1.0021   1.0023   1.0025   1.0026
     1.0027   1.0029   1.0032   1.0047   1.0049   1.0055   1.0060   1.0063
     1.0065   1.0069   1.0072   1.0077   1.0082   1.0084   1.0106   1.0111
     1.0119   1.0127   1.0136   1.0141   1.0149   1.0158   1.0172   1.0190
     1.0233   1.0299   1.0318   1.0372   1.0399   1.0413   1.0423   1.0598
     1.0617   1.0638   1.0644   1.0652   1.0660   1.0727   1.0767   1.0786
     1.0796   1.0827   1.0831   1.0832   1.0832   1.0827   1.0806   1.0796
     1.0767   1.0739   1.0727   1.0624   1.0543   1.0391   1.0329   1.0294
     1.0259   0.9869   0.9792   0.9616   0.9460   0.9305   0.9102   0.8473
     0.8416   0.8129   0.7944   0.6442   0.6154   0.5641   0.2652   0.1521
     0.0905   0.0323   0.0311   0.0283   0.0232   0.0183   0.0174   0.0115
     0.0079   0.0040   0.0033   0.0021   0.0005   0.0003   0.0001   0.0001
     0.0000   0.0000   0.0000   0.0000   0.0000   0.0000   0.0000   0.0000
     0.0000   0.0000   0.0000   0.0000   0.0000   0.0000   0.0000   0.0000
     0.0000   0.0000   0.0000   0.0000   0.0000   0.0000   0.0000   0.0000
     0.0000   0.0000   0.0000   0.0000   0.0000   0.0000   0.0000   0.0000
     0.0000   0.0000   0.0000   0.0000   0.0000   0.0000   0.0000   0.0000
     0.0000   0.0000   0.0000   0.0000   0.0000   0.0000   0.0000   0.0000
     0.0000   0.0000   0.0000   0.0000   0.0000   0.0000   0.0000   0.0000
     0.0000   0.0000   0.0000   0.0000   0.0000   0.0000   0.0000   0.0000
     0.0000   0.0000   0.0000   0.0000   0.0000   0.0000

          k = 0.0000 0.0000-0.4840 (129424 PWs)   bands (ev):

    -5.5275  -5.5264  -5.0648  -5.0570  -5.0311  -5.0298  -5.0145  -5.0124
    -5.0082  -4.9723  -4.6303  -4.5950  -4.5751  -4.5629  -4.5530  -4.5451
    -4.5333  -4.5203  -4.5045  -4.4701  -4.1733  -4.1678  -4.1435  -4.1103
    -4.0983  -4.0913  -4.0664  -4.0317  -3.8133  -3.7959  -3.7529  -3.7374
    -3.7065  -3.6809  -3.6564  -3.6479  -3.6004  -3.5827  -3.5594  -3.5418
    -3.5313  -3.5284  -3.5234  -3.4622  -3.2845  -3.2625  -3.2498  -3.2387
    -3.2158  -3.1965  -3.1827  -3.1811  -3.1780  -3.1684  -3.1665  -3.1450
    -3.1273  -3.1190  -3.1157  -3.0961  -3.0761  -3.0392  -2.9868  -2.9732
    -2.9274  -2.9207  -2.9007  -2.8940  -2.8727  -2.8567  -2.8269  -2.8156
    -2.7922  -2.7803  -2.7392  -2.7325  -2.7278  -2.6727  -2.6172  -2.5838
    -2.5241  -2.5054  -2.4981  -2.4813  -2.4681  -2.4479  -2.4276  -2.4134
    -2.4068  -2.3955  -2.3844  -2.3480  -2.3219  -2.1826  -1.7907  -1.7850
    -1.7309  -1.7252  -1.6979  -1.6725  -1.6130  -1.5959  -1.3202  -1.3006
    -1.2863  -1.2814  -1.2386  -1.2276  -1.2153  -1.2078  -1.1961  -1.1331
    -1.0696  -1.0428  -0.7813  -0.7731  -0.7589  -0.7542  -0.7438  -0.7305
    -0.6962  -0.6662  -0.5339  -0.5235  -0.4836  -0.4604  -0.4498  -0.4328
    -0.4177  -0.4168  -0.4106  -0.4003  -0.3995  -0.3917  -0.3883  -0.3752
    -0.3558  -0.3228  -0.2662  -0.2511  -0.2391  -0.2299  -0.2246  -0.1861
    -0.1777  -0.1603  -0.1445  -0.0626   0.1436   0.2285   0.2580   0.2779
     0.3127   0.3181   0.3197   0.3242   0.3295   0.3358   0.3399   0.3466
     0.3497   0.3521   0.3580   0.3598   0.3690   0.3742   0.3907   0.3956
     0.4083   0.4265   0.4366   0.4395   0.4470   0.4499   0.4662   0.4733
     0.4798   0.4878   0.5639   0.8604   1.3614   1.3757   1.4018   1.4065
     1.4116   1.4205   1.4251   1.5500   1.6853   1.7288   1.7830   1.8055
     1.8264   1.8369   1.8601   1.8664   1.8842   1.9445   1.9895   2.0294
     2.0713   2.1133   2.1160   2.1273   2.1404   2.1575   2.1622   2.1769
     2.1958   2.2007   2.2325   2.2382   2.2875   2.2922   2.3068   2.3073
     2.3213   2.3254   2.3419   2.3443   2.3554   2.3662   2.3889   2.3967
     2.4663   2.4707   2.4795   2.4962   2.5208   2.5543   2.6121   2.6371
     2.7065   2.7162   2.7587   2.7658   2.7678   2.7752   2.8021   2.8188
     2.8713   2.8784   3.0176   3.0399   3.0460   3.0854   3.1003   3.1275
     3.1286   3.1331   3.1378   3.1484   3.2034   3.2119   3.2172   3.2274
     3.2338   3.2443   3.2516   3.2541   3.2624   3.2709   3.2788   3.2842
     3.2924   3.3021   3.3189   3.3210   3.3298   3.3377   3.3532   3.3562
     3.3863   3.3964   3.4130   3.4207   3.4220   3.4345   3.4425   3.4612
     3.4720   3.4732   3.4985   3.5168   3.5287   3.5466   3.5538   3.5649
     3.5713   3.5838   3.6055   3.6109   3.6176   3.6280   3.6440   3.6683
     3.7141   3.7205   3.7331   3.7618   3.7909   3.8056   3.8137   3.8182
     3.8544   3.8760   3.9104   3.9187   3.9475   3.9639   3.9776   3.9961
     4.0132   4.0202   4.0294   4.0359   4.0385   4.0446   4.0455   4.0496
     4.0508   4.0561   4.1054   4.1264   4.1561   4.1801   4.2282   4.2420
     4.2754   4.2899   4.3302   4.3442   4.3517   4.3641   4.3727   4.3848
     4.3862   4.3944   4.4025   4.4220   4.4358   4.4454   4.4491   4.4570
     4.4702   4.4827   4.4984   4.5109   4.5165   4.5247   4.5309   4.5505
     4.5616   4.5632   4.5792   4.5920   4.6050   4.6084   4.6269   4.6446
     4.6624   4.6758   4.6816   4.6843   4.6915   4.6919   4.7079   4.7241
     4.7608   4.7693   4.7955   4.8014   4.8082   4.8162   4.8252   4.8275
     4.8329   4.8361   4.8430   4.8539   4.8574   4.8744   4.8773   4.8858
     4.8900   4.8986   4.9006   4.9059   4.9161   4.9284   4.9465   4.9582
     5.0021   5.0267   5.0684   5.0975   5.1346   5.1436   5.1616   5.1751
     5.1846   5.1923   5.2342   5.2378   5.2677   5.3256   5.3420   5.3614
     5.4362   5.4574   5.6135   5.6603   5.6854   5.6933   5.7659   5.7753
     5.8202   5.8203   5.9011   5.9044   5.9159   5.9262   5.9634   5.9778
     6.0543   6.0817   6.1270   6.1454   6.1520   6.1586   6.3180   6.3425
     7.2781   7.2964   7.3991   7.4414   7.6279   7.6839   7.7097   7.7305
     7.7395   7.7562   7.7664   7.7774   7.7924   7.8161   7.8250   7.8412
     7.8507   7.8814   7.8894   7.9063   7.9271   7.9607   7.9789   8.0062
     8.1722   8.2070   8.2719   8.3027   8.3212   8.3341   8.3393   8.3704
     8.4185   8.4343   8.4674   8.4915   8.5131   8.5335   8.5460   8.5597
     8.5795   8.6058   8.6205   8.6293   8.6592   8.6713   8.6845   8.7161
     8.7214   8.7284   8.7418   8.7528   8.7581   8.7634   8.7655   8.7684
     8.7718   8.7822   8.7871   8.7960   8.8008   8.8115   8.8183   8.8248
     8.8339   8.8504   8.8530   8.8648   8.8674   8.8833   8.8949   8.8972
     8.8983   8.9060   8.9154   8.9183   8.9297   8.9387   8.9412   8.9572
     8.9591   8.9632   8.9687   8.9789   8.9809   8.9926

     occupation numbers 
     1.0000   1.0000   1.0000   1.0000   1.0000   1.0000   1.0000   1.0000
     1.0000   1.0000   1.0000   1.0000   1.0000   1.0000   1.0000   1.0000
     1.0000   1.0000   1.0000   1.0000   1.0000   1.0000   1.0000   1.0000
     1.0000   1.0000   1.0000   1.0000   1.0000   1.0000   1.0000   1.0000
     1.0000   1.0000   1.0000   1.0000   1.0000   1.0000   1.0000   1.0000
     1.0000   1.0000   1.0000   1.0000   1.0000   1.0000   1.0000   1.0000
     1.0000   1.0000   1.0000   1.0000   1.0000   1.0000   1.0000   1.0000
     1.0000   1.0000   1.0000   1.0000   1.0000   1.0000   1.0000   1.0000
     1.0000   1.0000   1.0000   1.0000   1.0000   1.0000   1.0000   1.0000
     1.0000   1.0000   1.0000   1.0000   1.0000   1.0000   1.0000   1.0000
     1.0000   1.0000   1.0000   1.0000   1.0000   1.0000   1.0000   1.0000
     1.0000   1.0000   1.0000   1.0000   1.0000   1.0000   1.0000   1.0000
     1.0000   1.0000   1.0000   1.0000   1.0000   1.0000   1.0000   1.0000
     1.0000   1.0000   1.0000   1.0000   1.0000   1.0000   1.0000   1.0000
     1.0000   1.0000   1.0000   1.0000   1.0000   1.0000   1.0000   1.0000
     1.0000   1.0000   1.0000   1.0000   1.0000   1.0000   1.0000   1.0000
     1.0000   1.0000   1.0000   1.0000   1.0000   1.0000   1.0000   1.0000
     1.0000   1.0000   1.0000   1.0000   1.0000   1.0000   1.0000   1.0000
     1.0000   1.0000   1.0000   1.0000   1.0000   1.0000   1.0000   1.0000
     1.0000   1.0000   1.0000   1.0000   1.0000   1.0000   1.0000   1.0000
     1.0000   1.0000   1.0000   1.0000   1.0000   1.0000   1.0000   1.0000
     1.0000   1.0000   1.0000   1.0000   1.0000   1.0000   1.0000   1.0000
     1.0000   1.0000   1.0000   1.0000   1.0000   1.0000   1.0000   1.0000
     1.0000   1.0000   1.0000   1.0000   1.0000   1.0000   1.0000   1.0000
     1.0000   1.0000   1.0000   1.0000   1.0000   1.0000   1.0000   1.0000
     1.0000   1.0000   1.0000   1.0000   1.0000   1.0000   1.0000   1.0000
     1.0000   1.0000   1.0000   1.0000   1.0000   1.0000   1.0000   1.0000
     1.0000   1.0000   1.0000   1.0000   1.0000   1.0000   1.0000   1.0000
     1.0000   1.0000   1.0000   1.0000   1.0000   1.0000   1.0000   1.0000
     1.0000   1.0000   1.0000   1.0000   1.0000   1.0000   1.0000   1.0000
     1.0000   1.0000   1.0000   1.0000   1.0000   1.0000   1.0000   1.0000
     1.0000   1.0000   1.0000   1.0000   1.0000   1.0000   1.0000   1.0000
     1.0000   1.0000   1.0000   1.0000   1.0000   1.0000   1.0000   1.0000
     1.0000   1.0000   1.0000   1.0000   1.0000   1.0000   1.0000   1.0000
     1.0000   1.0000   1.0000   1.0000   1.0000   1.0000   1.0000   1.0000
     1.0000   1.0000   1.0000   1.0000   1.0000   1.0000   1.0000   1.0000
     1.0000   1.0000   1.0000   1.0000   1.0000   1.0000   1.0000   1.0000
     1.0000   1.0000   1.0000   1.0000   1.0000   1.0000   1.0000   1.0000
     1.0000   1.0000   1.0000   1.0000   1.0000   1.0001   1.0001   1.0001
     1.0001   1.0001   1.0001   1.0001   1.0001   1.0001   1.0001   1.0001
     1.0001   1.0001   1.0002   1.0002   1.0003   1.0003   1.0005   1.0005
     1.0006   1.0007   1.0009   1.0010   1.0011   1.0012   1.0012   1.0013
     1.0014   1.0014   1.0015   1.0017   1.0019   1.0020   1.0020   1.0021
     1.0023   1.0025   1.0028   1.0030   1.0031   1.0032   1.0034   1.0038
     1.0040   1.0040   1.0044   1.0048   1.0051   1.0052   1.0058   1.0064
     1.0070   1.0075   1.0077   1.0079   1.0081   1.0082   1.0089   1.0096
     1.0115   1.0120   1.0136   1.0139   1.0144   1.0149   1.0155   1.0157
     1.0161   1.0163   1.0168   1.0176   1.0179   1.0193   1.0195   1.0202
     1.0206   1.0213   1.0215   1.0219   1.0229   1.0240   1.0258   1.0270
     1.0317   1.0346   1.0397   1.0435   1.0485   1.0497   1.0522   1.0540
     1.0553   1.0564   1.0621   1.0626   1.0666   1.0736   1.0754   1.0773
     1.0824   1.0831   1.0721   1.0619   1.0549   1.0524   1.0244   1.0201
     0.9967   0.9967   0.9446   0.9423   0.9337   0.9259   0.8960   0.8838
     0.8136   0.7864   0.7398   0.7202   0.7132   0.7061   0.5307   0.5040
     0.0124   0.0111   0.0059   0.0045   0.0012   0.0008   0.0007   0.0006
     0.0005   0.0005   0.0004   0.0004   0.0004   0.0003   0.0003   0.0002
     0.0002   0.0002   0.0002   0.0001   0.0001   0.0001   0.0001   0.0001
     0.0000   0.0000   0.0000   0.0000   0.0000   0.0000   0.0000   0.0000
     0.0000   0.0000   0.0000   0.0000   0.0000   0.0000   0.0000   0.0000
     0.0000   0.0000   0.0000   0.0000   0.0000   0.0000   0.0000   0.0000
     0.0000   0.0000   0.0000   0.0000   0.0000   0.0000   0.0000   0.0000
     0.0000   0.0000   0.0000   0.0000   0.0000   0.0000   0.0000   0.0000
     0.0000   0.0000   0.0000   0.0000   0.0000   0.0000   0.0000   0.0000
     0.0000   0.0000   0.0000   0.0000   0.0000   0.0000   0.0000   0.0000
     0.0000   0.0000   0.0000   0.0000   0.0000   0.0000

          k = 0.0000-0.5031 0.0020 (129448 PWs)   bands (ev):

    -5.5247  -5.5121  -5.0886  -5.0495  -5.0411  -5.0352  -5.0314  -5.0170
    -5.0068  -4.9903  -4.6341  -4.6018  -4.5893  -4.5794  -4.5758  -4.5299
    -4.5243  -4.5161  -4.5113  -4.4564  -4.1170  -4.1026  -4.0703  -4.0681
    -4.0615  -4.0478  -4.0191  -3.9951  -3.7782  -3.7556  -3.7461  -3.7011
    -3.6840  -3.6667  -3.6634  -3.6502  -3.6469  -3.6376  -3.6198  -3.6067
    -3.5762  -3.5480  -3.5343  -3.4897  -3.3549  -3.3437  -3.3152  -3.3122
    -3.2876  -3.2840  -3.2433  -3.2402  -3.2161  -3.2077  -3.1974  -3.1826
    -3.1574  -3.1382  -3.1258  -3.1148  -3.0828  -3.0497  -2.9874  -2.9686
    -2.9465  -2.9394  -2.8909  -2.8852  -2.8713  -2.8587  -2.8437  -2.8354
    -2.8322  -2.7909  -2.7417  -2.7095  -2.6107  -2.5852  -2.5594  -2.5349
    -2.5207  -2.4776  -2.4310  -2.4034  -2.3855  -2.3602  -2.3089  -2.2930
    -2.2723  -2.2666  -2.2536  -2.2355  -2.2204  -2.1043  -1.8083  -1.7979
    -1.7162  -1.7131  -1.7001  -1.6987  -1.6718  -1.6279  -1.4833  -1.4794
    -1.4384  -1.4104  -1.3102  -1.2859  -1.2674  -1.2603  -1.2538  -1.2112
    -1.1860  -1.1312  -0.9315  -0.9237  -0.8981  -0.8638  -0.7554  -0.7487
    -0.7287  -0.6857  -0.5659  -0.5328  -0.4880  -0.4631  -0.4469  -0.4336
    -0.4140  -0.4001  -0.3646  -0.3515  -0.3326  -0.3252  -0.3137  -0.2988
    -0.2645  -0.2374  -0.1758  -0.1489  -0.1338  -0.1095  -0.0970  -0.0856
    -0.0785  -0.0086   0.1118   0.1362   0.1451   0.1620   0.1738   0.1752
     0.2017   0.2316   0.2589   0.2672   0.2853   0.2936   0.2940   0.3327
     0.3639   0.3790   0.3913   0.3963   0.4087   0.4175   0.4328   0.4395
     0.4423   0.4500   0.4652   0.4757   0.4790   0.4871   0.4878   0.4924
     0.4937   0.5039   0.5594   0.8747   1.1700   1.2016   1.2064   1.2369
     1.3286   1.3701   1.3757   1.4408   1.6777   1.6976   1.7664   1.8057
     1.8172   1.8222   1.8581   1.9042   1.9270   1.9709   2.0320   2.0531
     2.0869   2.1199   2.1282   2.1443   2.1461   2.1512   2.1553   2.1583
     2.1633   2.1669   2.1762   2.1842   2.1924   2.2149   2.2526   2.2731
     2.3289   2.3411   2.3548   2.3603   2.4665   2.5041   2.5409   2.5451
     2.5475   2.5568   2.5705   2.5786   2.5857   2.5915   2.6063   2.6189
     2.6290   2.6322   2.6408   2.6437   2.6499   2.6563   2.6715   2.7025
     3.0123   3.0815   3.1452   3.1561   3.1676   3.1891   3.1957   3.2016
     3.2081   3.2155   3.2189   3.2278   3.2381   3.2431   3.2491   3.2546
     3.2609   3.2692   3.2719   3.2819   3.2915   3.2999   3.3025   3.3040
     3.3078   3.3110   3.3167   3.3229   3.3327   3.3366   3.3471   3.3569
     3.3615   3.3659   3.3733   3.3802   3.3875   3.4044   3.4288   3.4345
     3.4387   3.4514   3.4973   3.5194   3.5390   3.5435   3.5564   3.5775
     3.6431   3.6609   3.6719   3.6829   3.7041   3.7080   3.7127   3.7270
     3.7313   3.7394   3.7420   3.7528   3.7611   3.7689   3.7722   3.7783
     3.7850   3.7899   3.8096   3.8280   3.8386   3.8474   3.8657   3.8859
     3.8901   3.9118   3.9490   3.9612   3.9756   3.9893   4.0809   4.0856
     4.0958   4.1105   4.1435   4.1576   4.1710   4.1850   4.1896   4.1982
     4.1996   4.2167   4.2497   4.2554   4.2707   4.2731   4.2752   4.2909
     4.2965   4.3161   4.3237   4.3366   4.3394   4.3403   4.3522   4.3619
     4.3920   4.3941   4.4114   4.4281   4.4648   4.4819   4.4983   4.5131
     4.5238   4.5330   4.5390   4.5478   4.5590   4.5736   4.6388   4.6679
     4.6870   4.7234   4.7353   4.7439   4.7673   4.7714   4.7758   4.7951
     4.7969   4.8058   4.8145   4.8288   4.8408   4.8636   4.8688   4.9032
     4.9078   4.9251   4.9427   4.9457   4.9483   4.9595   4.9680   4.9757
     4.9825   4.9835   4.9925   4.9994   5.0026   5.0269   5.0321   5.0464
     5.0552   5.0656   5.1088   5.1340   5.1618   5.1773   5.2051   5.2152
     5.2240   5.2513   5.2661   5.2966   5.3360   5.3449   5.3715   5.4066
     5.4853   5.5079   5.6137   5.6279   5.6653   5.6723   5.7584   5.8065
     5.8155   5.8305   5.8412   5.8560   5.8721   5.8828   5.8921   5.9058
     5.9408   5.9560   5.9792   6.0095   6.0292   6.0402   6.2629   6.3047
     6.8951   6.9099   7.5401   7.5599   7.6041   7.6909   7.7171   7.7430
     7.7983   7.8085   7.8476   7.8673   7.8774   7.9010   7.9237   7.9266
     7.9300   7.9336   7.9434   8.0072   8.0266   8.0999   8.1199   8.1363
     8.1588   8.1708   8.1814   8.1896   8.2259   8.2345   8.2791   8.2977
     8.3120   8.3292   8.3545   8.3928   8.4133   8.4447   8.5007   8.5305
     8.5484   8.5575   8.5936   8.6019   8.6276   8.6509   8.6673   8.7000
     8.7120   8.7262   8.7405   8.7447   8.7633   8.7653   8.7784   8.7966
     8.8095   8.8116   8.8179   8.8226   8.8359   8.8374   8.8449   8.8583
     8.8629   8.8799   8.8904   8.9174   8.9263   8.9336   8.9433   8.9543
     8.9602   8.9719   8.9785   8.9980   9.0119   9.0216   9.0450   9.0487
     9.0586   9.0638   9.0734   9.0836   9.0994   9.1076

     occupation numbers 
     1.0000   1.0000   1.0000   1.0000   1.0000   1.0000   1.0000   1.0000
     1.0000   1.0000   1.0000   1.0000   1.0000   1.0000   1.0000   1.0000
     1.0000   1.0000   1.0000   1.0000   1.0000   1.0000   1.0000   1.0000
     1.0000   1.0000   1.0000   1.0000   1.0000   1.0000   1.0000   1.0000
     1.0000   1.0000   1.0000   1.0000   1.0000   1.0000   1.0000   1.0000
     1.0000   1.0000   1.0000   1.0000   1.0000   1.0000   1.0000   1.0000
     1.0000   1.0000   1.0000   1.0000   1.0000   1.0000   1.0000   1.0000
     1.0000   1.0000   1.0000   1.0000   1.0000   1.0000   1.0000   1.0000
     1.0000   1.0000   1.0000   1.0000   1.0000   1.0000   1.0000   1.0000
     1.0000   1.0000   1.0000   1.0000   1.0000   1.0000   1.0000   1.0000
     1.0000   1.0000   1.0000   1.0000   1.0000   1.0000   1.0000   1.0000
     1.0000   1.0000   1.0000   1.0000   1.0000   1.0000   1.0000   1.0000
     1.0000   1.0000   1.0000   1.0000   1.0000   1.0000   1.0000   1.0000
     1.0000   1.0000   1.0000   1.0000   1.0000   1.0000   1.0000   1.0000
     1.0000   1.0000   1.0000   1.0000   1.0000   1.0000   1.0000   1.0000
     1.0000   1.0000   1.0000   1.0000   1.0000   1.0000   1.0000   1.0000
     1.0000   1.0000   1.0000   1.0000   1.0000   1.0000   1.0000   1.0000
     1.0000   1.0000   1.0000   1.0000   1.0000   1.0000   1.0000   1.0000
     1.0000   1.0000   1.0000   1.0000   1.0000   1.0000   1.0000   1.0000
     1.0000   1.0000   1.0000   1.0000   1.0000   1.0000   1.0000   1.0000
     1.0000   1.0000   1.0000   1.0000   1.0000   1.0000   1.0000   1.0000
     1.0000   1.0000   1.0000   1.0000   1.0000   1.0000   1.0000   1.0000
     1.0000   1.0000   1.0000   1.0000   1.0000   1.0000   1.0000   1.0000
     1.0000   1.0000   1.0000   1.0000   1.0000   1.0000   1.0000   1.0000
     1.0000   1.0000   1.0000   1.0000   1.0000   1.0000   1.0000   1.0000
     1.0000   1.0000   1.0000   1.0000   1.0000   1.0000   1.0000   1.0000
     1.0000   1.0000   1.0000   1.0000   1.0000   1.0000   1.0000   1.0000
     1.0000   1.0000   1.0000   1.0000   1.0000   1.0000   1.0000   1.0000
     1.0000   1.0000   1.0000   1.0000   1.0000   1.0000   1.0000   1.0000
     1.0000   1.0000   1.0000   1.0000   1.0000   1.0000   1.0000   1.0000
     1.0000   1.0000   1.0000   1.0000   1.0000   1.0000   1.0000   1.0000
     1.0000   1.0000   1.0000   1.0000   1.0000   1.0000   1.0000   1.0000
     1.0000   1.0000   1.0000   1.0000   1.0000   1.0000   1.0000   1.0000
     1.0000   1.0000   1.0000   1.0000   1.0000   1.0000   1.0000   1.0000
     1.0000   1.0000   1.0000   1.0000   1.0000   1.0000   1.0000   1.0000
     1.0000   1.0000   1.0000   1.0000   1.0000   1.0000   1.0000   1.0000
     1.0000   1.0000   1.0000   1.0000   1.0000   1.0000   1.0000   1.0000
     1.0000   1.0000   1.0000   1.0000   1.0000   1.0000   1.0000   1.0000
     1.0000   1.0000   1.0000   1.0000   1.0000   1.0000   1.0000   1.0000
     1.0000   1.0000   1.0000   1.0001   1.0001   1.0001   1.0001   1.0002
     1.0002   1.0002   1.0002   1.0003   1.0003   1.0003   1.0003   1.0004
     1.0004   1.0004   1.0005   1.0006   1.0006   1.0006   1.0006   1.0007
     1.0007   1.0008   1.0009   1.0010   1.0010   1.0010   1.0011   1.0012
     1.0014   1.0014   1.0016   1.0018   1.0022   1.0025   1.0028   1.0030
     1.0032   1.0034   1.0035   1.0037   1.0040   1.0043   1.0062   1.0072
     1.0080   1.0096   1.0102   1.0106   1.0119   1.0121   1.0124   1.0135
     1.0137   1.0142   1.0148   1.0158   1.0166   1.0184   1.0188   1.0217
     1.0221   1.0237   1.0254   1.0257   1.0260   1.0271   1.0280   1.0288
     1.0295   1.0297   1.0306   1.0314   1.0318   1.0346   1.0352   1.0369
     1.0380   1.0394   1.0450   1.0484   1.0522   1.0543   1.0582   1.0596
     1.0608   1.0644   1.0664   1.0702   1.0747   1.0756   1.0782   1.0809
     1.0833   1.0829   1.0721   1.0694   1.0606   1.0587   1.0278   1.0043
     0.9994   0.9908   0.9844   0.9753   0.9647   0.9576   0.9511   0.9412
     0.9145   0.9022   0.8826   0.8558   0.8376   0.8271   0.5916   0.5453
     0.0862   0.0809   0.0023   0.0020   0.0015   0.0008   0.0006   0.0005
     0.0003   0.0003   0.0002   0.0002   0.0002   0.0001   0.0001   0.0001
     0.0001   0.0001   0.0001   0.0001   0.0000   0.0000   0.0000   0.0000
     0.0000   0.0000   0.0000   0.0000   0.0000   0.0000   0.0000   0.0000
     0.0000   0.0000   0.0000   0.0000   0.0000   0.0000   0.0000   0.0000
     0.0000   0.0000   0.0000   0.0000   0.0000   0.0000   0.0000   0.0000
     0.0000   0.0000   0.0000   0.0000   0.0000   0.0000   0.0000   0.0000
     0.0000   0.0000   0.0000   0.0000   0.0000   0.0000   0.0000   0.0000
     0.0000   0.0000   0.0000   0.0000   0.0000   0.0000   0.0000   0.0000
     0.0000   0.0000   0.0000   0.0000   0.0000   0.0000   0.0000   0.0000
     0.0000   0.0000   0.0000   0.0000   0.0000   0.0000

          k = 0.0000-0.5031-0.4820 (129472 PWs)   bands (ev):

    -5.4125  -5.4048  -5.3950  -5.3876  -4.9576  -4.9375  -4.9172  -4.9117
    -4.8992  -4.8844  -4.8781  -4.8496  -4.5100  -4.4566  -4.4525  -4.4443
    -4.4271  -4.3953  -4.3874  -4.3526  -4.0971  -4.0800  -4.0521  -4.0462
    -4.0211  -4.0110  -3.9931  -3.9669  -3.9626  -3.9579  -3.9504  -3.9456
    -3.9400  -3.9208  -3.9044  -3.8468  -3.6092  -3.5525  -3.5337  -3.5294
    -3.5151  -3.4953  -3.4750  -3.4644  -3.4444  -3.4336  -3.4231  -3.4112
    -3.4023  -3.3689  -3.3257  -3.3072  -3.2800  -3.2756  -3.2319  -3.2072
    -2.9442  -2.9380  -2.9173  -2.9043  -2.8877  -2.8805  -2.8349  -2.8212
    -2.8057  -2.8000  -2.7687  -2.7570  -2.7428  -2.7366  -2.7322  -2.7079
    -2.6607  -2.6422  -2.6388  -2.5977  -2.5165  -2.5013  -2.4781  -2.4729
    -2.4689  -2.4458  -2.4444  -2.4067  -2.3911  -2.3693  -2.3527  -2.3383
    -2.3257  -2.3095  -2.3004  -2.2916  -2.2854  -2.2393  -2.2230  -2.1541
    -2.0690  -2.0588  -2.0355  -2.0113  -1.9828  -1.9772  -1.9557  -1.8071
    -1.4854  -1.4786  -1.4553  -1.3977  -1.0604  -1.0472  -1.0299  -0.9851
    -0.5829  -0.5073  -0.4623  -0.4435  -0.4305  -0.4119  -0.3912  -0.3882
    -0.3791  -0.3741  -0.3584  -0.3547  -0.3382  -0.3313  -0.3179  -0.3146
    -0.3012  -0.2916  -0.2901  -0.2784  -0.2757  -0.2728  -0.2677  -0.2489
    -0.2474  -0.2361  -0.2333  -0.2242  -0.2199  -0.2110  -0.2014  -0.1922
    -0.1829  -0.1746  -0.1676  -0.1643  -0.1577  -0.1543  -0.1473  -0.1404
    -0.1325  -0.1308  -0.1070  -0.1065  -0.0898  -0.0832  -0.0622  -0.0553
    -0.0473  -0.0345   0.0319   0.0457   0.0803   0.0877   0.0934   0.4612
     0.9312   0.9390   1.0281   1.0338   1.0374   1.0451   1.0488   1.0576
     1.0680   1.0740   1.0831   1.0843   1.0896   1.0942   1.1038   1.1114
     1.1247   1.1838   1.2156   1.2248   1.2331   1.2404   1.2508   1.2679
     1.2954   1.3047   1.3382   1.5613   2.0852   2.1591   2.2111   2.2179
     2.2285   2.2365   2.2557   2.2652   2.3122   2.3330   2.4205   2.4242
     2.4439   2.4510   2.4571   2.4619   2.4663   2.4754   2.4831   2.4915
     2.4959   2.4978   2.5060   2.5136   2.5182   2.5292   2.5323   2.5424
     2.5474   2.5566   2.5697   2.5884   2.6363   2.6451   2.6581   2.6749
     2.6833   2.6898   2.6997   2.7256   2.7277   2.7439   2.7602   2.7641
     2.7783   2.7967   2.8205   2.8369   2.8609   2.8998   2.9238   2.9287
     2.9453   2.9538   2.9731   2.9904   3.0175   3.0239   3.0647   3.0774
     3.1437   3.1494   3.1602   3.1766   3.1903   3.1966   3.2298   3.2403
     3.2666   3.2852   3.3068   3.3169   3.3534   3.3915   3.4012   3.4104
     3.4182   3.4303   3.4432   3.4546   3.4637   3.4749   3.4807   3.4958
     3.5021   3.5184   3.5268   3.5346   3.5484   3.5578   3.5619   3.5886
     3.6173   3.6346   3.6372   3.6525   3.6909   3.6997   3.7156   3.7249
     3.7264   3.7531   3.7648   3.7774   3.7866   3.7951   3.8282   3.8478
     3.8731   3.8888   3.8918   3.9118   3.9126   3.9188   3.9335   3.9440
     3.9864   4.0252   4.0337   4.0457   4.0542   4.0649   4.0681   4.0829
     4.0883   4.0907   4.1009   4.1026   4.1174   4.1313   4.1371   4.1397
     4.1443   4.1518   4.1604   4.1677   4.1694   4.1770   4.1853   4.1945
     4.2164   4.2306   4.2385   4.2464   4.2592   4.2805   4.3236   4.3333
     4.3436   4.3591   4.3673   4.4261   4.4853   4.5116   4.5550   4.5720
[...]
     atom   27 type  1   force =    -0.00000360   -0.00000481    0.00000607
     atom   28 type  1   force =    -0.00000061   -0.00000116    0.00001409
     atom   29 type  1   force =    -0.00000176   -0.00000085    0.00001255
     atom   30 type  1   force =    -0.00000119    0.00000142    0.00001293
     atom   31 type  1   force =     0.00000205   -0.00000433    0.00001140
     atom   32 type  1   force =     0.00000272   -0.00000081    0.00001391
     atom   33 type  1   force =     0.00000303   -0.00000105    0.00000633
     atom   34 type  1   force =     0.00000185    0.00000156    0.00000132
     atom   35 type  1   force =     0.00000266    0.00000004    0.00000792
     atom   36 type  1   force =     0.00000601    0.00000234    0.00000325
     atom   37 type  1   force =    -0.00000145    0.00000255   -0.00000675
     atom   38 type  1   force =     0.00000110    0.00000662   -0.00001161
     atom   39 type  1   force =    -0.00000101    0.00000033   -0.00000274
     atom   40 type  1   force =     0.00000081    0.00000120   -0.00000859
     atom   41 type  1   force =    -0.00000629   -0.00000062   -0.00000948
     atom   42 type  1   force =    -0.00000554    0.00000060   -0.00001004
     atom   43 type  1   force =    -0.00000015    0.00000243   -0.00001466
     atom   44 type  1   force =     0.00000250    0.00000233   -0.00001755
     atom   45 type  1   force =    -0.00000593   -0.00000170   -0.00000580
     atom   46 type  1   force =    -0.00000403   -0.00000049   -0.00000095
     atom   47 type  1   force =    -0.00000508   -0.00000441   -0.00000895
     atom   48 type  1   force =    -0.00000389   -0.00000226   -0.00000313
     atom   49 type  1   force =    -0.00000126   -0.00000359    0.00000277
     atom   50 type  1   force =    -0.00000067    0.00000145    0.00001108
     atom   51 type  1   force =     0.00000028    0.00000245    0.00000341
     atom   52 type  1   force =    -0.00000143    0.00000188    0.00000923
     atom   53 type  1   force =     0.00000145   -0.00000303    0.00001681
     atom   54 type  1   force =     0.00000305   -0.00000127    0.00001692
     atom   55 type  1   force =    -0.00000019    0.00000144    0.00001528
     atom   56 type  1   force =    -0.00000195    0.00000096    0.00001190
     atom   57 type  1   force =     0.00000119   -0.00000143    0.00000903
     atom   58 type  1   force =     0.00000254   -0.00000061    0.00000379
     atom   59 type  1   force =     0.00000260   -0.00000317    0.00000893
     atom   60 type  1   force =     0.00000206   -0.00000449    0.00000361
     atom   61 type  1   force =     0.00000534   -0.00000081   -0.00000454
     atom   62 type  1   force =     0.00000660   -0.00000187   -0.00001169
     atom   63 type  1   force =    -0.00000078   -0.00000110   -0.00000336
     atom   64 type  1   force =    -0.00000031    0.00000023   -0.00000765
     atom   65 type  1   force =    -0.00000290   -0.00000196   -0.00001221
     atom   66 type  1   force =    -0.00000029    0.00000177   -0.00001329
     atom   67 type  1   force =     0.00000162   -0.00000180   -0.00001209
     atom   68 type  1   force =    -0.00000038   -0.00000263   -0.00001285
     atom   69 type  1   force =    -0.00000071    0.00000164   -0.00001230
     atom   70 type  1   force =    -0.00000006    0.00000284   -0.00000553
     atom   71 type  1   force =    -0.00000098    0.00000077   -0.00001232
     atom   72 type  1   force =    -0.00000082    0.00000413   -0.00000451
     atom   73 type  1   force =    -0.00000362   -0.00000032    0.00000314
     atom   74 type  1   force =    -0.00000324   -0.00000031    0.00000909
     atom   75 type  1   force =    -0.00000041   -0.00000161    0.00000188
     atom   76 type  1   force =     0.00000221    0.00000065    0.00000737
     atom   77 type  1   force =    -0.00000106   -0.00000459    0.00001347
     atom   78 type  1   force =    -0.00000017   -0.00000309    0.00001284
     atom   79 type  1   force =    -0.00000588    0.00000120    0.00001257
     atom   80 type  1   force =    -0.00000567    0.00000356    0.00001219
     atom   81 type  1   force =    -0.00000067   -0.00000448    0.00000839
     atom   82 type  1   force =    -0.00000128   -0.00000423    0.00000232
     atom   83 type  1   force =    -0.00000250   -0.00000182    0.00000831
     atom   84 type  1   force =     0.00000060    0.00000466    0.00000515
     atom   85 type  1   force =     0.00000004   -0.00000971   -0.00000284
     atom   86 type  1   force =     0.00000254   -0.00000357   -0.00000596
     atom   87 type  1   force =    -0.00000173   -0.00000165   -0.00000554
     atom   88 type  1   force =     0.00000151    0.00000441   -0.00000846
     atom   89 type  1   force =     0.00000061   -0.00000635   -0.00001304
     atom   90 type  1   force =     0.00000145   -0.00000276   -0.00001167
     atom   91 type  1   force =     0.00000341   -0.00000153   -0.00001083
     atom   92 type  1   force =     0.00000690    0.00000377   -0.00001185
     atom   93 type  1   force =     0.00000072   -0.00000373   -0.00001109
     atom   94 type  1   force =     0.00000304    0.00000009   -0.00000555
     atom   95 type  1   force =    -0.00000234   -0.00000185   -0.00000697
     atom   96 type  1   force =    -0.00000124   -0.00000019   -0.00000344
     atom   97 type  1   force =    -0.00000483   -0.00000113    0.00000646
     atom   98 type  1   force =    -0.00000366    0.00000151    0.00001302
     atom   99 type  1   force =     0.00000096    0.00000203    0.00000252
     atom  100 type  1   force =     0.00000052    0.00000224    0.00001150
     atom  101 type  1   force =    -0.00000344    0.00000272    0.00001452
     atom  102 type  1   force =    -0.00000203    0.00000716    0.00001598
     atom  103 type  1   force =    -0.00000240   -0.00000010    0.00001767
     atom  104 type  1   force =     0.00000024    0.00000322    0.00002018
     atom  105 type  1   force =    -0.00000345    0.00000421    0.00000633
     atom  106 type  1   force =    -0.00000041    0.00001031    0.00000320
     atom  107 type  1   force =    -0.00000260    0.00000675    0.00001281
     atom  108 type  1   force =    -0.00000283    0.00000640    0.00000734
     atom  109 type  1   force =     0.00000082    0.00000787   -0.00000265
     atom  110 type  1   force =     0.00000273    0.00000963   -0.00000698
     atom  111 type  1   force =     0.00000295    0.00000646   -0.00000670
     atom  112 type  1   force =     0.00000392    0.00000657   -0.00001204
     atom  113 type  1   force =     0.00000111    0.00000409   -0.00001349
     atom  114 type  1   force =     0.00000388    0.00000570   -0.00001539
     atom  115 type  1   force =     0.00000424    0.00000576   -0.00001646
     atom  116 type  1   force =     0.00000222    0.00000239   -0.00001942
     atom  117 type  1   force =     0.00000471    0.00000166   -0.00001255
     atom  118 type  1   force =     0.00000572    0.00000122   -0.00000877
     atom  119 type  1   force =     0.00000145    0.00000140   -0.00001288
     atom  120 type  1   force =     0.00000215    0.00000164   -0.00000635
     atom  121 type  1   force =     0.00000032   -0.00000038    0.00000517
     atom  122 type  1   force =     0.00000158    0.00000015    0.00001349
     atom  123 type  1   force =     0.00000022   -0.00000156    0.00000282
     atom  124 type  1   force =    -0.00000019   -0.00000145    0.00001023
     atom  125 type  1   force =    -0.00000101    0.00000048    0.00001961
     atom  126 type  1   force =    -0.00000329   -0.00000193    0.00002009
     atom  127 type  1   force =     0.00000060   -0.00000260    0.00001714
     atom  128 type  1   force =     0.00000004   -0.00000499    0.00001586
     atom  129 type  1   force =     0.00000394   -0.00000182    0.00001312
     atom  130 type  1   force =     0.00000343   -0.00000370    0.00000661
     atom  131 type  1   force =    -0.00000052   -0.00000823    0.00001337
     atom  132 type  1   force =    -0.00000191   -0.00000850    0.00000587
     atom  133 type  1   force =     0.00000012    0.00000074   -0.00000355
     atom  134 type  1   force =    -0.00000250   -0.00000376   -0.00001075
     atom  135 type  1   force =     0.00000452   -0.00000825   -0.00000350
     atom  136 type  1   force =     0.00000241   -0.00000841   -0.00000991
     atom  137 type  1   force =     0.00000514    0.00000056   -0.00001899
     atom  138 type  1   force =     0.00000387   -0.00000105   -0.00001995
     atom  139 type  1   force =     0.00000050   -0.00000758   -0.00001698
     atom  140 type  1   force =     0.00000051   -0.00000420   -0.00001524
     atom  141 type  1   force =     0.00000285    0.00000011   -0.00001690
     atom  142 type  1   force =     0.00000033   -0.00000053   -0.00000772
     atom  143 type  1   force =    -0.00000056   -0.00000117   -0.00001326
     atom  144 type  1   force =     0.00000028   -0.00000028   -0.00000516
     atom  145 type  1   force =     0.00000345   -0.00000061    0.00000153
     atom  146 type  1   force =     0.00000547   -0.00000009    0.00000715
     atom  147 type  1   force =     0.00000484    0.00000214   -0.00000127
     atom  148 type  1   force =     0.00000409    0.00000035    0.00000498
     atom  149 type  1   force =     0.00000332    0.00000057    0.00001187
     atom  150 type  1   force =     0.00000265   -0.00000091    0.00001045
     atom  151 type  1   force =     0.00000333   -0.00000163    0.00001006
     atom  152 type  1   force =     0.00000487    0.00000081    0.00001098
     atom  153 type  1   force =     0.00000015   -0.00000615    0.00001018
     atom  154 type  1   force =     0.00000328   -0.00000236    0.00000489
     atom  155 type  1   force =     0.00000468   -0.00000200    0.00000780
     atom  156 type  1   force =     0.00000244    0.00000027    0.00000370
     atom  157 type  1   force =     0.00000084   -0.00000268   -0.00000245
     atom  158 type  1   force =     0.00000046    0.00000159   -0.00000594
     atom  159 type  1   force =     0.00000280   -0.00000112    0.00000017
     atom  160 type  1   force =     0.00000359    0.00000406   -0.00000235
     atom  161 type  1   force =     0.00000115   -0.00000353   -0.00001184
     atom  162 type  1   force =     0.00000375    0.00000187   -0.00001039
     atom  163 type  1   force =     0.00000112    0.00000238   -0.00000912
     atom  164 type  1   force =    -0.00000290    0.00000260   -0.00000963
     atom  165 type  1   force =     0.00000097    0.00000395   -0.00001096
     atom  166 type  1   force =     0.00000031    0.00000607   -0.00000569
     atom  167 type  1   force =     0.00000564    0.00000186   -0.00001141
     atom  168 type  1   force =     0.00000631    0.00000142   -0.00000767
     atom  169 type  1   force =     0.00000517    0.00000005   -0.00000225
     atom  170 type  1   force =     0.00000470    0.00000108    0.00000566
     atom  171 type  1   force =     0.00000217   -0.00000409   -0.00000138
     atom  172 type  1   force =     0.00000141   -0.00000222    0.00000751
     atom  173 type  1   force =     0.00000505   -0.00000118    0.00000855
     atom  174 type  1   force =     0.00000361    0.00000058    0.00001056
     atom  175 type  1   force =    -0.00000039    0.00000276    0.00001500
     atom  176 type  1   force =    -0.00000268    0.00000222    0.00001705
     atom  177 type  1   force =     0.00000009    0.00000448    0.00001076
     atom  178 type  1   force =    -0.00000072    0.00000630    0.00000805
     atom  179 type  1   force =    -0.00000121    0.00000236    0.00001094
     atom  180 type  1   force =    -0.00000161    0.00000127    0.00000446
     atom  181 type  1   force =     0.00000021    0.00000221    0.00000163
     atom  182 type  1   force =    -0.00000359    0.00000096   -0.00000436
     atom  183 type  1   force =    -0.00000242    0.00000571    0.00000067
     atom  184 type  1   force =    -0.00000539    0.00000141   -0.00000671
     atom  185 type  1   force =     0.00000459    0.00000406   -0.00000943
     atom  186 type  1   force =     0.00000196    0.00000109   -0.00001246
     atom  187 type  1   force =    -0.00000370   -0.00000117   -0.00001055
     atom  188 type  1   force =    -0.00000411   -0.00000177   -0.00001292
     atom  189 type  1   force =     0.00000051    0.00000021   -0.00001144
     atom  190 type  1   force =    -0.00000056   -0.00000139   -0.00000526
     atom  191 type  1   force =     0.00000404   -0.00000100   -0.00001533
     atom  192 type  1   force =     0.00000153   -0.00000174   -0.00000857
     atom  193 type  1   force =     0.00000068   -0.00000148    0.00000046
     atom  194 type  1   force =     0.00000028    0.00000087    0.00001033
     atom  195 type  1   force =    -0.00000099    0.00000070    0.00000195
     atom  196 type  1   force =     0.00000125    0.00000349    0.00001076
     atom  197 type  1   force =    -0.00000076    0.00000083    0.00001430
     atom  198 type  1   force =    -0.00000027    0.00000225    0.00001361
     atom  199 type  1   force =     0.00000028   -0.00000267    0.00001586
     atom  200 type  1   force =     0.00000155   -0.00000297    0.00001397
     atom  201 type  1   force =    -0.00000520   -0.00000004    0.00001451
     atom  202 type  1   force =    -0.00000580   -0.00000186    0.00000705
     atom  203 type  1   force =    -0.00000157   -0.00000170    0.00000873
     atom  204 type  1   force =    -0.00000015    0.00000064    0.00000311
     atom  205 type  1   force =    -0.00000579   -0.00000099   -0.00000151
     atom  206 type  1   force =    -0.00000318   -0.00000083   -0.00000811
     atom  207 type  1   force =    -0.00000424   -0.00000794   -0.00000274
     atom  208 type  1   force =    -0.00000132   -0.00000365   -0.00000767
     atom  209 type  1   force =    -0.00000302   -0.00000258   -0.00001612
     atom  210 type  1   force =    -0.00000264   -0.00000229   -0.00001608
     atom  211 type  1   force =    -0.00000345   -0.00000317   -0.00001267
     atom  212 type  1   force =     0.00000060    0.00000109   -0.00001195
     atom  213 type  1   force =    -0.00000257   -0.00000433   -0.00001365
     atom  214 type  1   force =    -0.00000070    0.00000021   -0.00000600
     atom  215 type  1   force =    -0.00000038   -0.00000321   -0.00001462
     atom  216 type  2   force =     0.00000067    0.00000018    0.00000075
     atom  217 type  2   force =    -0.00000002    0.00000066   -0.00000253
     atom  218 type  2   force =    -0.00000059   -0.00000004    0.00000054
     atom  219 type  2   force =     0.00000031    0.00000055    0.00000356

     Total force =     0.036984     Total SCF correction =     0.000163


     Computing stress (Cartesian axis) and pressure

          total   stress  (Ry/bohr**3)                   (kbar)     P=   49.67
   0.00039738  -0.00007619  -0.00012684         58.46    -11.21    -18.66
  -0.00007619   0.00042789  -0.00001851        -11.21     62.94     -2.72
  -0.00012684  -0.00001851   0.00018772        -18.66     -2.72     27.61

     kinetic stress (kbar)   2406.62    -11.69    -20.62
                              -11.69   2411.09     -3.06
                              -20.62     -3.06   2368.96

     local   stress (kbar)  -1179.30     16.45     14.21
                               16.45  -1156.78      4.90
                               14.21      4.90  -1364.41

     nonloc. stress (kbar)   2704.12      1.05      0.24
                                1.05   2702.67     -0.05
                                0.24     -0.05   2721.92

     hartree stress (kbar)    195.89     -8.69     -9.83
                               -8.69    192.86     -2.38
                               -9.83     -2.38    220.54

     exc-cor stress (kbar)   -842.42      0.02      0.15
                                0.02   -842.55      0.01
                                0.15      0.01   -841.75

     corecor stress (kbar)      0.00      0.00      0.00
                                0.00      0.00      0.00
                                0.00      0.00      0.00

     ewald   stress (kbar)  -3226.45     -8.35     -2.81
                               -8.35  -3244.35     -2.15
                               -2.81     -2.15  -3077.64

     hubbard stress (kbar)      0.00      0.00      0.00
                                0.00      0.00      0.00
                                0.00      0.00      0.00

     london  stress (kbar)      0.00      0.00      0.00
                                0.00      0.00      0.00
                                0.00      0.00      0.00

     DFT-D3  stress (kbar)      0.00      0.00      0.00
                                0.00      0.00      0.00
                                0.00      0.00      0.00

     XDM     stress (kbar)      0.00      0.00      0.00
                                0.00      0.00      0.00
                                0.00      0.00      0.00

     dft-nl  stress (kbar)      0.00      0.00      0.00
                                0.00      0.00      0.00
                                0.00      0.00      0.00

     TS-vdW  stress (kbar)      0.00      0.00      0.00
                                0.00      0.00      0.00
                                0.00      0.00      0.00



     Writing output data file vacancy_optimize3.save

     init_run     :    221.11s CPU    227.30s WALL (       1 calls)
     electrons    :   7776.65s CPU   8081.12s WALL (       1 calls)
     forces       :     81.00s CPU     81.60s WALL (       1 calls)
     stress       :    715.56s CPU    718.41s WALL (       1 calls)

     Called by init_run:
     wfcinit      :    208.98s CPU    215.09s WALL (       1 calls)
     wfcinit:atom :      0.71s CPU      1.46s WALL (       8 calls)
     wfcinit:wfcr :    198.03s CPU    202.60s WALL (       8 calls)
     potinit      :      4.98s CPU      5.01s WALL (       1 calls)

     Called by electrons:
     c_bands      :   7260.67s CPU   7531.70s WALL (      19 calls)
     sum_band     :    510.92s CPU    531.47s WALL (      19 calls)
     v_of_rho     :      4.33s CPU      4.48s WALL (      19 calls)
     v_h          :      0.24s CPU      0.26s WALL (      19 calls)
     v_xc         :      4.09s CPU      4.22s WALL (      19 calls)
     mix_rho      :      0.77s CPU      0.98s WALL (      19 calls)

     Called by c_bands:
     init_us_2    :     26.23s CPU     28.01s WALL (     328 calls)
     cegterg      :   7208.16s CPU   7414.12s WALL (     152 calls)

     Called by sum_band:

     Called by *egterg:
     h_psi        :   3811.48s CPU   3903.16s WALL (     840 calls)
     g_psi        :     11.46s CPU     11.48s WALL (     680 calls)
     cdiaghg      :   1293.78s CPU   1295.84s WALL (     824 calls)
     cegterg:over :    928.01s CPU    934.97s WALL (     680 calls)
     cegterg:upda :    604.05s CPU    609.37s WALL (     680 calls)
     cegterg:last :    349.77s CPU    352.05s WALL (     152 calls)

     Called by h_psi:
     h_psi:pot    :   3792.66s CPU   3882.11s WALL (     840 calls)
     h_psi:calbec :    786.60s CPU    793.35s WALL (     840 calls)
     vloc_psi     :   2223.66s CPU   2304.64s WALL (     840 calls)
     add_vuspsi   :    782.40s CPU    784.11s WALL (     840 calls)

     General routines
     calbec       :    868.49s CPU    875.55s WALL (     880 calls)
     fft          :      2.19s CPU      2.35s WALL (     218 calls)
     fftw         :   2443.69s CPU   2540.64s WALL (  462510 calls)

     Parallel routines
     fft_scatt_xy :    315.97s CPU    316.76s WALL (  462728 calls)
     fft_scatt_yz :    370.27s CPU    454.67s WALL (  462728 calls)

     PWSCF        :     2h26m CPU        2h31m WALL


   This run was terminated on:  11:15:43   7Nov2020            

=------------------------------------------------------------------------------=
   JOB DONE.
=------------------------------------------------------------------------------=
