72
config_type=liquid dft_energy=-6929.757083758852 dft_virial="-21.875178671250666 8.699993842908379 -0.7352667249602787 8.699993842908379 -19.831004695370112 13.004284994973144 -0.7352667249602788 13.004284994973144 -17.010495042324283" pbc="T T T" Lattice="11.2999927403 0.0 0.0 0.0 11.2999927403 0.0 0.0 0.0 11.2999927403" Properties=species:S:1:pos:R:3:Z:I:1:dft_force:R:3
Si	4.634556422521162	5.118795011421237	2.9688696926444997	14	1.5095609824235368	-0.9639518646455534	0.5991212756956935
Si	8.174844148057153	3.015380462763574	0.9338573900416948	14	-0.781353507471829	-0.6339571816783799	-0.21395864298463463
Si	2.985966581660574	7.143889310395881	5.559370428372794	14	0.018832060917424606	0.21422115283782173	-0.337763020581469
Si	3.129069689723733	3.4129933073165106	8.966792839268336	14	0.9592595974362832	-0.6044558050139367	-1.1395976959230654
Si	9.44491813209591	3.0277200548359824	6.211470409430026	14	-0.5413038019193955	-0.30838737096718116	-0.17486215837593094
Si	6.333905830771177	6.727552377872268	0.444766584258934	14	0.20372872913682946	1.0184412996954515	0.04704557092700552
Si	1.536493912876812	2.1842433967290287	7.836059065710217	14	0.31346427553234557	1.2078029494138256	-1.9619847587517976
Si	0.23182613106289868	4.359661499127884	5.468767086581069	14	-0.005887831183139101	-0.9324915628376895	1.0005386933512606
Si	4.807615811338857	5.826524856738967	8.003129458375554	14	-0.04325113369553099	-1.017547583486168	0.9620032239234132
Si	1.1929628335789517	8.306070963750257	10.101346010372678	14	0.11965229961532721	1.7634812869571048	1.6569459953535774
Si	5.566387723864521	2.4385158333712593	2.558114956534595	14	0.024467666668657177	0.27887185322347724	0.034492920532978574
Si	6.507959618950019	3.9902647364474766	9.017575006643245	14	-0.5261386514095662	1.2418520971685465	1.0488250797057694
Si	10.367935439101835	8.690361116862379	4.3209025240286545	14	-1.6922467571781463	-2.913385001445452	-2.318718165716915
Si	0.290332973475076	0.31897732507246246	3.415004706024284	14	2.0847552948994004	1.3226285130116386	0.4112755496740788
Si	5.964057068381158	0.46982318816127516	7.474289798129512	14	0.40559160714282744	-1.4749677887830726	-1.2667933614371751
Si	3.862179318736176	5.000461487444816	10.50936614823943	14	0.5918777006772403	0.5174280036954365	0.6281783653608151
Si	7.120758225256488	2.4938066978495472	7.405484142333826	14	1.4326239981550217	-0.018396772786723532	-0.9462184370314282
Si	10.656853653485825	1.1582379558880098	0.08983155228756291	14	-0.9016444696486808	-2.9923387607270917	-0.6968407613774976
Si	4.571378163110144	5.253027625183261	5.681884949663127	14	-0.9345636166151968	-0.9883650238814236	-1.0682814049949263
Si	4.762596640261501	2.8818597485441897	6.867062088244013	14	-0.879682859335572	0.5487702917691057	-0.003149346906649382
Si	0.6147840150309397	4.451123640367872	8.131531275883582	14	0.2982639008796301	-0.16341456904850363	-1.1673594627278963
Si	7.0894346453803765	9.500593196327369	8.351937634283134	14	-0.577738935411214	0.9848546937878253	0.21550644838736377
Si	0.35251231352785073	3.057585935648595	0.3057506835699413	14	-0.21390233577812343	1.436186778797151	0.5487137274520624
Si	8.793100650857186	7.327841892215225	10.51651904364404	14	-0.8096150971508966	-0.14868470666937528	-0.7349070040844179
Si	6.220273103774721	4.372814690677592	0.36838767332869826	14	-1.0346464623072809	-0.312205205257069	-0.42521068339874935
Si	0.8212405323925909	6.859739692948297	1.7008636072772156	14	-0.3536755914078654	-0.5858214620956315	-1.1985595686773614
Si	4.985443797092958	0.1209325223066906	0.13855712098373651	14	-0.8904743025852975	1.317349262457779	0.44497682687898377
Si	10.340024457033294	8.202495230292666	7.252199740811657	14	0.9590760205164246	-0.5277034261074083	0.3770068295250172
Si	6.643695131746501	0.750618967763538	9.67959638132646	14	0.3494191265503603	0.5922212003480122	0.21950580271285414
Si	0.9692738272883431	6.835874108280783	8.534647216901044	14	-0.12932608338238435	-0.7607905784528807	-2.7129904816877906
Si	11.233480983030596	3.9166565837371623	2.7127892571638212	14	0.5542182068319674	-0.02190890265404581	-0.17685270811478956
Si	9.87092785840522	0.7310914503090256	5.078047237599716	14	-0.09224226001829255	0.20660373910581906	0.39391518944190695
Si	5.058871149919426	9.66634148984209	2.713150856931511	14	0.21118956255483512	-1.5594203710129126	-0.32143855868278476
Si	8.462383763326825	1.8463623138013188	3.221142030571697	14	1.2307747470072208	-0.22887182517308952	-1.151101849567536
Si	3.6777069372507785	0.13128557565535348	3.02802515463997	14	-0.34563780195601845	0.8724318281116904	-0.5195831041747846
Si	10.624919874001737	9.54468576800002	0.8350785035023623	14	1.3906031383551816	0.18197692101784468	-0.6053883449135544
Si	3.2806025923711557	7.792678393580205	7.999321360822072	14	-0.38412467749331514	-0.3488835653121734	-0.14489361187481695
Si	9.728254150066192	4.713023572109805	0.9728276750051673	14	0.20498214298040165	0.8485022937865403	0.8749808219260853
Si	8.37704621815208	9.789048111009006	10.254799911785952	14	0.5662021287291776	-0.6173370426678785	-0.5684880984693212
Si	1.3989165012636595	7.970721079196372	3.7546937877904427	14	0.5158783985189832	0.6664760075465487	1.834199538787778
Si	8.250655799351824	0.6765542953465157	0.0026487182983263202	14	1.0107565230040612	0.2353026737998439	0.8676061205363046
Si	9.300357324969253	7.221226460710494	1.5544496013411486	14	0.14170055617772503	-0.6255429824076633	0.6288226843540441
Si	11.103079066807531	9.972774692973545	5.786488982460083	14	1.2152696963740677	2.582616415776914	2.636697559301973
Si	1.5210468228008218	2.520485980709396	4.14256603860124	14	-0.3777246821304025	0.40593510681359923	-0.5724833390262994
Si	2.5670193508139514	2.9597392985103372	11.238260879959741	14	1.193118595598864	0.0433503783608887	1.1124841047694438
Si	6.631875339340148	6.929969147829262	2.818093889510677	14	0.1407001390976554	0.0205873545194897	0.39200562952063295
Si	9.600191332340373	5.672087855957288	6.837716007097453	14	0.34426714570984757	-0.1549116666442419	-0.9530339230140764
Si	2.655147994195551	4.233802179986422	2.200594486224243	14	-1.3200854327394804	-0.8728239216730129	-0.6269745738499217
Si	4.404081770590002	0.7238221649791906	9.132123033051666	14	-1.9693918560686123	0.7301751418532174	0.620295613559773
Si	8.396968105353228	7.061907863065004	4.776213131513562	14	0.4986959587749657	-0.14606140791122818	0.3298339888846643
Si	0.7768338209217599	0.7993445364597115	9.317216914137779	14	-0.46969209098997117	-1.6310811900539517	2.532196012006682
Si	8.295166470755866	9.503113094708455	1.3235568496785988	14	-0.3369446377580658	0.3611839902742939	1.0542251722096767
Si	4.052075696736917	7.315750899983104	3.1679190647648845	14	-0.2564140195835798	1.990015206062584	0.5340643406694547
Si	3.3154517699822414	8.860787607371583	11.0272787155056	14	1.95817463777787	-2.4536780550768085	-0.6219400925225397
Si	9.70211726685788	10.537017230474945	2.963954195802469	14	-1.4280170916423804	-0.40171052366206395	-0.3166982118040278
Si	11.040375407091608	6.412011380592131	10.684990635409173	14	0.3140070358654288	0.990474615796605	0.7282771519058839
Si	10.458550080886301	4.3021219360942755	9.967486296371083	14	-0.4790239177494487	-0.5510176949294471	-0.24671812431076937
Si	6.1340089591952704	9.497090198577876	0.48610308770222543	14	-0.45744103124999763	-1.5415355052954305	-0.4068277945807547
Si	2.2289687679951364	9.014094608879233	1.8722279971838653	14	0.28678288718304085	0.5229504808125826	0.1873752137480276
Si	8.482701150273884	5.341642168252694	8.908213676902621	14	-0.14876723915015203	0.5546216132566986	0.44880931646919653
Si	2.5048467907568206	10.938178272748335	11.05363029857598	14	-0.2737998337584211	2.1361540042439486	-0.3822683394521682
Si	0.10695556128621354	6.09747608266588	3.9304312748875883	14	-1.0497604478212395	-0.2245158585396947	-0.18317634164969376
Si	7.156454902323095	3.0298896534421194	4.559806970544077	14	-0.9108343713944861	2.8344932058020285	1.6162148019823237
Si	8.046849130287773	7.624839601408529	7.342735282646941	14	0.41156377058046745	-0.44176551633411887	-0.41366899161660464
H	6.961722127429505	4.81454270688866	4.969092707597743	1	0.1095591685705539	-1.3385541964751682	-0.4151874864186841
H	5.064001346623523	8.855600910703785	10.092599815991687	1	-0.40233607358645596	0.28242306389166577	0.47822301844222254
H	4.381199285290895	7.6900292595273205	0.5708903232305184	1	-0.23067468422357737	-0.04914950641048269	-0.41708933302399764
H	8.495255442208359	3.721799508923429	3.5247502355180775	1	-0.42471960228260114	-0.8963312805045949	0.11409691235008325
H	6.242036889792538	7.996744962477283	6.592551364603905	1	-0.047407582556082364	0.14980056637831957	-0.4186638779220563
H	3.442587988303356	3.7237996076384623	5.680054350839198	1	0.6832105607437965	0.5679386532624056	0.22799327848519496
H	8.305799763924488	3.0128040644187863	10.632965468832833	1	-0.034239666658943985	-0.1656989961254552	0.13603178316786255
H	5.50760516162948	7.754439218147031	6.753813561000725	1	-0.4974980808063087	-0.0104595135528944	-0.11281341657426533
