72
config_type=liquid dft_energy=-6930.84030194935 dft_virial="-43.66689463318152 4.848785970008324 2.065370854437972 4.848785970008325 -40.67416034185672 5.217081734943383 2.0653708544379725 5.217081734943383 -40.37740404205292" pbc="T T T" Lattice="11.2999927403 0.0 0.0 0.0 11.2999927403 0.0 0.0 0.0 11.2999927403" Properties=species:S:1:pos:R:3:Z:I:1:dft_force:R:3
Si	8.359497329426393	5.223794543964105	1.5687553921503685	14	0.25301244724502386	0.11875344119540344	-1.033591537794424
Si	5.7924779786124425	5.113404914884114	5.506271762486125	14	1.252970842125527	0.7731347122054435	0.6544686885909251
Si	2.754474930382788	2.7424517381071087	9.82497078793042	14	-0.6116734118686564	0.40807375221889836	-0.05016200768555701
Si	8.950193149932836	8.165465154082703	2.745186336350261	14	-0.19691170049098886	-1.360469526892514	0.031240986524055277
Si	7.574554633714195	7.2266956571967995	9.425504744568075	14	0.8926764542920043	-1.6191209223256868	1.2599385375431282
Si	0.00320241794260102	2.2805080348836446	10.955196061815226	14	0.6016026494401683	-0.6482972644909738	-0.16626206819056763
Si	10.080644423672448	0.534713396472448	8.755946274727078	14	-0.0024026979216783795	0.32814837223677523	0.4470951605522538
Si	3.5713853055572957	10.914730787812212	0.6062796404945899	14	-0.42986001314917316	-0.3267777159906043	2.026288102808701
Si	2.697613366913598	4.977228702370759	8.803315844294417	14	-0.8799060312773609	-0.5051910850347238	0.38899589363286763
Si	5.695682240799034	2.7909174069702556	6.705076692311811	14	0.9719071216166235	1.0716546951749604	0.6674178034253189
Si	8.760624471721563	0.3637139963313102	6.559510185831266	14	0.4441738706875015	1.238664697903159	0.4323799534734503
Si	4.951069219176964	5.287006703353343	8.397973804707116	14	1.041243404337717	0.04945469661198427	0.5353560639822971
Si	2.0844531608394394	10.870807716030665	7.9320412040463255	14	0.40981027675212645	-0.5223555270415002	0.011563546177365986
Si	2.30518721902846	5.670923956705035	3.206384240052865	14	0.47697628947248283	0.036625395285509385	0.04880112163960263
Si	4.815232006445818	0.023824904693648518	3.2732914970681817	14	-1.6238700109625324	-0.8758894505462255	-1.4798040378902713
Si	6.972027720808659	4.690796486389635	3.2818003916016276	14	-1.2234370695340502	-0.3716879839492268	1.1456084259405077
Si	11.149589836926607	6.69185570080566	10.217227435924455	14	0.16246480274324093	0.8730458080621418	0.11649472517165334
Si	2.600196129499472	11.079349082052902	4.578790958347781	14	0.025758361539371513	0.7744040669020007	-0.8600483564477291
Si	8.00980775408507	3.4887710586329623	11.15344313445105	14	0.24609514549169748	-0.2101816892693371	-0.012755510603786635
Si	5.37464944704711	1.3950745037319574	4.922570637485928	14	0.47561257521067624	0.9641920058824551	-0.743018070037889
Si	4.521149695379511	9.586100241393218	7.774146405486113	14	-1.0992262001861004	-1.0329667592016283	1.0442030036717393
Si	3.4929068559759124	3.287280888080673	7.028787584343186	14	-1.204338642105458	-0.23411713713672364	0.40673086391018515
Si	2.3760155735246604	4.925610335533069	0.7285252219577034	14	0.104820878576053	0.14281153078656103	-0.16122938663690975
Si	2.3163177118776552	4.935057129463959	5.808535268296409	14	-0.45680931067283725	0.4671680368971819	-0.3675060811460059
Si	10.591652695374295	4.320337524391639	5.10306542152674	14	0.9943441293034277	-0.45974756983270243	-0.7893213628589678
Si	9.408147955718974	1.3638752237759892	2.152038417419174	14	0.005386465645710226	-0.16615536731978148	0.2918433366741563
Si	7.103277136487242	9.519000884501317	6.007641140380494	14	-0.18322647820343665	0.65302604139579	0.5533352892650285
Si	5.526882949244432	2.2592414485464	9.264039148301928	14	0.118138175692292	-0.2612924348180288	1.1128741414465104
Si	7.283060020985415	9.321488311393614	10.014539466141693	14	-1.040274868963617	2.1333394152499827	0.8902045936372142
Si	8.476000254578887	7.6363203940326745	5.563257625875457	14	0.1906790840844179	-0.517105844198822	-0.07690638811520531
Si	0.5208618653713882	5.782002885342185	8.03576383740954	14	0.22102429751493358	-0.12775565225283791	-0.3566863557377588
Si	1.486016845305892	3.5194279389373966	3.9262615775664176	14	-0.7556722790920618	-0.43481119066418233	0.22394378760596173
Si	0.9435742537990787	11.183184715343518	2.786013210120965	14	-0.4933676001094907	-1.0805697457620418	0.8136159941395791
Si	5.285628104239026	0.17025925061664815	6.913177358617177	14	0.43164873112040014	0.524589560454177	-0.5817539734791572
Si	3.807080554134473	7.011905395189178	9.707123163641832	14	0.2228968335195974	0.7185223783212422	0.6634963535910291
Si	7.506912877170758	4.392860877798885	7.646908487230336	14	0.0546884386016777	-0.01258890297904104	-0.2328940623359292
Si	4.489419315764748	3.9900387365926706	4.003745627786655	14	-0.9346613186173625	-0.2836852194933264	-0.8286988692791637
Si	2.0511972822047366	8.625781658351563	9.400644760539414	14	0.37804298496903677	0.2147346025702553	2.128317789449201
Si	4.639709219210738	5.568071422782825	1.5347537139948058	14	0.527890859685247	-0.07609674704989068	0.017136416958786944
Si	11.177647718900772	7.942493697331103	4.426534856164979	14	-0.08437467773863944	0.3693230812757546	-0.6059922975532572
Si	1.8189824313915717	1.5096677301113397	1.399006901205582	14	0.25262498167327757	0.16138416717718268	-1.0991814629535297
Si	9.555917960783878	9.58686864089956	9.548007965865667	14	0.8434750115540546	-0.10476842802752197	0.03144307540221892
Si	9.964096298548993	8.05807002307889	7.555627145874192	14	0.5167723718387988	0.484063284176939	0.5923417851875271
Si	1.3908144064688643	9.691359673769114	0.39134247858134363	14	0.03806624270692037	-0.13509615794186067	0.33824870237644494
Si	4.667371601438993	8.525505522774141	0.5224664643405108	14	-0.5628458078442562	-0.3806976512120897	0.05125369900449188
Si	5.6618048625636135	7.679723666148166	2.6430457019706894	14	0.6772252846690238	0.20967261041594776	-1.1258080867595155
Si	2.808308095797577	9.102200652275352	5.68501504765219	14	0.031946754934435925	-1.4613206188542587	1.1853703126060655
Si	1.1109124562923594	8.332094847031167	7.452605112060877	14	-0.9312610318314665	-0.46015380447328585	-2.306077840631471
Si	1.8533231093293432	8.834549024228606	2.8932162412481914	14	-0.47062437377905686	-0.03583092374158363	0.27966143966729473
Si	9.647278402089203	9.863029163479752	5.4270362133911405	14	0.5441852396516855	-0.7536285074730762	-0.4732525576373122
Si	6.522773909432551	9.827874886064679	3.7992835591436664	14	0.38138953565374156	-0.7893699567495186	-0.9063380224106112
Si	9.606372428369317	10.287038791074028	2.9562476007535845	14	0.6583335741081717	1.7907625141776005	-0.022799790647477124
Si	1.5199168235267917	2.107719845891717	6.001629544242656	14	1.4054073056780623	-0.4584638169463525	-1.3853596261652716
Si	8.2429379043102	7.380997058065597	0.42796123505555983	14	0.3786546509247001	-0.24308515249340013	0.6950679842592554
Si	7.152149605089041	0.6331532832295714	8.230406212361206	14	-0.039242266280356104	0.05355252427123629	1.084847550793704
Si	7.490493987719104	2.3880048658221185	4.143436138042243	14	0.8768302179828678	0.47987983871052603	-0.24100564251046436
Si	9.689562974923406	5.646922772124639	6.750694763004403	14	-0.4026440920038097	0.6184575303663992	0.3629953339723382
Si	8.857612309411559	3.1194081959307765	6.144597052392931	14	-0.10531041702900922	-1.3806046239861898	-0.6185498330473924
Si	0.5583428112916893	2.6969353673491803	7.951567591501565	14	-0.7356839921121667	0.3336181416948582	1.6463468707817988
Si	8.26362819101769	0.623984469120092	10.678063739859368	14	0.16597384728417902	0.47857474565001884	-0.28717292386010734
Si	6.6426329324289135	6.737507671476473	7.500358881381385	14	-0.8461697870401019	-0.5452427352698624	-2.6690117251866576
Si	10.224267331401661	9.017089106955412	0.6046366215501503	14	0.3771572391862458	-0.22681211270111895	-0.6115890796141555
Si	4.395290376238049	11.295077243457971	9.869153759544993	14	0.5353648057403856	0.07528659176351202	-2.2976862670875717
Si	6.171513635100325	5.164537382033972	10.678741739423787	14	0.18779816057319196	0.4319498075533895	-0.1378593248294238
H	9.457167324226397	3.6943405265645	10.539751828718098	1	-0.35219694873824825	0.08054758746959902	-0.12811689255031872
H	11.10896636302523	1.4716545545329704	2.59447833317288	1	-0.917673254435548	0.03899929682760211	0.020405834483887244
H	0.9053079583833268	0.4460536534320542	0.2699489165708488	1	-0.16348450311321167	0.3410041559480476	-0.1497406596243601
H	4.713859771572587	7.7062786490878725	3.7649428812058945	1	-0.8933092033112928	-0.15867345083815054	0.6782673536552798
H	3.9539578597728924	7.97214487828165	5.447828200033293	1	-0.8738279383005307	0.8012417784547704	0.074053489651969
H	3.496907053405978	7.218616162387486	0.8113507787462804	1	0.34997834195749244	0.3798736119569822	0.012183182559521673
H	5.608604496742281	1.5924627769195179	10.799188362042644	1	-0.1807993547812169	0.2004186881476708	-0.44658762436205657
H	3.3190451676736568	1.349705032879653	9.025168601764726	1	-0.029963404290473696	-0.5583409742128249	0.2889313027885566
